+ 0.5 2 0 undefined 64 ------- 0 2.0 0.0 -1 0
- 0.5 2 0 undefined 64 ------- 0 2.0 0.0 -1 0
+ 0.5 3 1 undefined 64 ------- 0 3.0 1.0 -1 1
- 0.5 3 1 undefined 64 ------- 0 3.0 1.0 -1 1
r 0.510512 2 0 undefined 64 ------- 0 2.0 0.0 -1 0
+ 0.510512 0 2 undefined 128 ------- 0 0.0 2.0 -1 2
- 0.510512 0 2 undefined 128 ------- 0 0.0 2.0 -1 2
r 0.510512 3 1 undefined 64 ------- 0 3.0 1.0 -1 1
+ 0.510512 1 3 undefined 128 ------- 0 1.0 3.0 -1 3
- 0.510512 1 3 undefined 128 ------- 0 1.0 3.0 -1 3
r 0.521536 0 2 undefined 128 ------- 0 0.0 2.0 -1 2
r 0.521536 1 3 undefined 128 ------- 0 1.0 3.0 -1 3
+ 1 4 0 undefined 64 ------- 0 4.0 0.0 -1 4
- 1 4 0 undefined 64 ------- 0 4.0 0.0 -1 4
+ 1 5 1 undefined 64 ------- 0 5.0 1.0 -1 5
- 1 5 1 undefined 64 ------- 0 5.0 1.0 -1 5
r 1.010512 4 0 undefined 64 ------- 0 4.0 0.0 -1 4
+ 1.010512 0 2 undefined 128 ------- 0 0.0 2.0 -1 6
- 1.010512 0 2 undefined 128 ------- 0 0.0 2.0 -1 6
+ 1.010512 0 4 undefined 192 ------- 0 0.0 4.0 -1 7
- 1.010512 0 4 undefined 192 ------- 0 0.0 4.0 -1 7
r 1.010512 5 1 undefined 64 ------- 0 5.0 1.0 -1 5
+ 1.010512 1 3 undefined 128 ------- 0 1.0 3.0 -1 8
- 1.010512 1 3 undefined 128 ------- 0 1.0 3.0 -1 8
+ 1.010512 1 5 undefined 192 ------- 0 1.0 5.0 -1 9
- 1.010512 1 5 undefined 192 ------- 0 1.0 5.0 -1 9
r 1.021536 0 2 undefined 128 ------- 0 0.0 2.0 -1 6
r 1.021536 1 3 undefined 128 ------- 0 1.0 3.0 -1 8
r 1.022048 0 4 undefined 192 ------- 0 0.0 4.0 -1 7
r 1.022048 1 5 undefined 192 ------- 0 1.0 5.0 -1 9
+ 1.5 6 2 undefined 64 ------- 0 6.0 0.0 -1 10
- 1.5 6 2 undefined 64 ------- 0 6.0 0.0 -1 10
+ 1.5 7 3 undefined 64 ------- 0 7.0 1.0 -1 11
- 1.5 7 3 undefined 64 ------- 0 7.0 1.0 -1 11
r 1.510512 6 2 undefined 64 ------- 0 6.0 0.0 -1 10
+ 1.510512 2 0 undefined 64 ------- 0 6.0 0.0 -1 10
- 1.510512 2 0 undefined 64 ------- 0 6.0 0.0 -1 10
r 1.510512 7 3 undefined 64 ------- 0 7.0 1.0 -1 11
+ 1.510512 3 1 undefined 64 ------- 0 7.0 1.0 -1 11
- 1.510512 3 1 undefined 64 ------- 0 7.0 1.0 -1 11
r 1.521024 2 0 undefined 64 ------- 0 6.0 0.0 -1 10
+ 1.521024 0 2 undefined 128 ------- 0 0.0 2.0 -1 12
- 1.521024 0 2 undefined 128 ------- 0 0.0 2.0 -1 12
+ 1.521024 0 4 undefined 128 ------- 0 0.0 4.0 -1 13
- 1.521024 0 4 undefined 128 ------- 0 0.0 4.0 -1 13
+ 1.521024 0 2 undefined 256 ------- 0 0.0 6.0 -1 14
r 1.521024 3 1 undefined 64 ------- 0 7.0 1.0 -1 11
+ 1.521024 1 3 undefined 128 ------- 0 1.0 3.0 -1 15
- 1.521024 1 3 undefined 128 ------- 0 1.0 3.0 -1 15
+ 1.521024 1 5 undefined 128 ------- 0 1.0 5.0 -1 16
- 1.521024 1 5 undefined 128 ------- 0 1.0 5.0 -1 16
+ 1.521024 1 3 undefined 256 ------- 0 1.0 7.0 -1 17
- 1.522048 0 2 undefined 256 ------- 0 0.0 6.0 -1 14
- 1.522048 1 3 undefined 256 ------- 0 1.0 7.0 -1 17
r 1.532048 0 2 undefined 128 ------- 0 0.0 2.0 -1 12
r 1.532048 0 4 undefined 128 ------- 0 0.0 4.0 -1 13
r 1.532048 1 3 undefined 128 ------- 0 1.0 3.0 -1 15
r 1.532048 1 5 undefined 128 ------- 0 1.0 5.0 -1 16
r 1.534096 0 2 undefined 256 ------- 0 0.0 6.0 -1 14
+ 1.534096 2 6 undefined 256 ------- 0 0.0 6.0 -1 14
- 1.534096 2 6 undefined 256 ------- 0 0.0 6.0 -1 14
r 1.534096 1 3 undefined 256 ------- 0 1.0 7.0 -1 17
+ 1.534096 3 7 undefined 256 ------- 0 1.0 7.0 -1 17
- 1.534096 3 7 undefined 256 ------- 0 1.0 7.0 -1 17
r 1.546144 2 6 undefined 256 ------- 0 0.0 6.0 -1 14
r 1.546144 3 7 undefined 256 ------- 0 1.0 7.0 -1 17
+ 2 8 2 undefined 64 ------- 0 8.0 0.0 -1 18
- 2 8 2 undefined 64 ------- 0 8.0 0.0 -1 18
+ 2 9 3 undefined 64 ------- 0 9.0 1.0 -1 19
- 2 9 3 undefined 64 ------- 0 9.0 1.0 -1 19
r 2.010512 8 2 undefined 64 ------- 0 8.0 0.0 -1 18
+ 2.010512 2 0 undefined 64 ------- 0 8.0 0.0 -1 18
- 2.010512 2 0 undefined 64 ------- 0 8.0 0.0 -1 18
r 2.010512 9 3 undefined 64 ------- 0 9.0 1.0 -1 19
+ 2.010512 3 1 undefined 64 ------- 0 9.0 1.0 -1 19
- 2.010512 3 1 undefined 64 ------- 0 9.0 1.0 -1 19
r 2.021024 2 0 undefined 64 ------- 0 8.0 0.0 -1 18
+ 2.021024 0 2 undefined 128 ------- 0 0.0 2.0 -1 20
- 2.021024 0 2 undefined 128 ------- 0 0.0 2.0 -1 20
+ 2.021024 0 4 undefined 128 ------- 0 0.0 4.0 -1 21
- 2.021024 0 4 undefined 128 ------- 0 0.0 4.0 -1 21
+ 2.021024 0 2 undefined 128 ------- 0 0.0 6.0 -1 22
+ 2.021024 0 2 undefined 320 ------- 0 0.0 8.0 -1 23
r 2.021024 3 1 undefined 64 ------- 0 9.0 1.0 -1 19
+ 2.021024 1 3 undefined 128 ------- 0 1.0 3.0 -1 24
- 2.021024 1 3 undefined 128 ------- 0 1.0 3.0 -1 24
+ 2.021024 1 5 undefined 128 ------- 0 1.0 5.0 -1 25
- 2.021024 1 5 undefined 128 ------- 0 1.0 5.0 -1 25
+ 2.021024 1 3 undefined 128 ------- 0 1.0 7.0 -1 26
+ 2.021024 1 3 undefined 320 ------- 0 1.0 9.0 -1 27
- 2.022048 0 2 undefined 128 ------- 0 0.0 6.0 -1 22
- 2.022048 1 3 undefined 128 ------- 0 1.0 7.0 -1 26
- 2.023072 0 2 undefined 320 ------- 0 0.0 8.0 -1 23
- 2.023072 1 3 undefined 320 ------- 0 1.0 9.0 -1 27
r 2.032048 0 2 undefined 128 ------- 0 0.0 2.0 -1 20
r 2.032048 0 4 undefined 128 ------- 0 0.0 4.0 -1 21
r 2.032048 1 3 undefined 128 ------- 0 1.0 3.0 -1 24
r 2.032048 1 5 undefined 128 ------- 0 1.0 5.0 -1 25
r 2.033072 0 2 undefined 128 ------- 0 0.0 6.0 -1 22
+ 2.033072 2 6 undefined 128 ------- 0 0.0 6.0 -1 22
- 2.033072 2 6 undefined 128 ------- 0 0.0 6.0 -1 22
r 2.033072 1 3 undefined 128 ------- 0 1.0 7.0 -1 26
+ 2.033072 3 7 undefined 128 ------- 0 1.0 7.0 -1 26
- 2.033072 3 7 undefined 128 ------- 0 1.0 7.0 -1 26
r 2.035632 0 2 undefined 320 ------- 0 0.0 8.0 -1 23
+ 2.035632 2 8 undefined 320 ------- 0 0.0 8.0 -1 23
- 2.035632 2 8 undefined 320 ------- 0 0.0 8.0 -1 23
r 2.035632 1 3 undefined 320 ------- 0 1.0 9.0 -1 27
+ 2.035632 3 9 undefined 320 ------- 0 1.0 9.0 -1 27
- 2.035632 3 9 undefined 320 ------- 0 1.0 9.0 -1 27
r 2.044096 2 6 undefined 128 ------- 0 0.0 6.0 -1 22
r 2.044096 3 7 undefined 128 ------- 0 1.0 7.0 -1 26
r 2.048192 2 8 undefined 320 ------- 0 0.0 8.0 -1 23
r 2.048192 3 9 undefined 320 ------- 0 1.0 9.0 -1 27
+ 2.5 10 2 undefined 64 ------- 0 10.0 0.0 -1 28
- 2.5 10 2 undefined 64 ------- 0 10.0 0.0 -1 28
+ 2.5 11 3 undefined 64 ------- 0 11.0 1.0 -1 29
- 2.5 11 3 undefined 64 ------- 0 11.0 1.0 -1 29
r 2.510512 10 2 undefined 64 ------- 0 10.0 0.0 -1 28
+ 2.510512 2 0 undefined 64 ------- 0 10.0 0.0 -1 28
- 2.510512 2 0 undefined 64 ------- 0 10.0 0.0 -1 28
r 2.510512 11 3 undefined 64 ------- 0 11.0 1.0 -1 29
+ 2.510512 3 1 undefined 64 ------- 0 11.0 1.0 -1 29
- 2.510512 3 1 undefined 64 ------- 0 11.0 1.0 -1 29
r 2.521024 2 0 undefined 64 ------- 0 10.0 0.0 -1 28
+ 2.521024 0 2 undefined 128 ------- 0 0.0 2.0 -1 30
- 2.521024 0 2 undefined 128 ------- 0 0.0 2.0 -1 30
+ 2.521024 0 4 undefined 128 ------- 0 0.0 4.0 -1 31
- 2.521024 0 4 undefined 128 ------- 0 0.0 4.0 -1 31
+ 2.521024 0 2 undefined 128 ------- 0 0.0 6.0 -1 32
+ 2.521024 0 2 undefined 128 ------- 0 0.0 8.0 -1 33
+ 2.521024 0 2 undefined 384 ------- 0 0.0 10.0 -1 34
r 2.521024 3 1 undefined 64 ------- 0 11.0 1.0 -1 29
+ 2.521024 1 3 undefined 128 ------- 0 1.0 3.0 -1 35
- 2.521024 1 3 undefined 128 ------- 0 1.0 3.0 -1 35
+ 2.521024 1 5 undefined 128 ------- 0 1.0 5.0 -1 36
- 2.521024 1 5 undefined 128 ------- 0 1.0 5.0 -1 36
+ 2.521024 1 3 undefined 128 ------- 0 1.0 7.0 -1 37
+ 2.521024 1 3 undefined 128 ------- 0 1.0 9.0 -1 38
+ 2.521024 1 3 undefined 384 ------- 0 1.0 11.0 -1 39
- 2.522048 0 2 undefined 128 ------- 0 0.0 6.0 -1 32
- 2.522048 1 3 undefined 128 ------- 0 1.0 7.0 -1 37
- 2.523072 0 2 undefined 128 ------- 0 0.0 8.0 -1 33
- 2.523072 1 3 undefined 128 ------- 0 1.0 9.0 -1 38
- 2.524096 0 2 undefined 384 ------- 0 0.0 10.0 -1 34
- 2.524096 1 3 undefined 384 ------- 0 1.0 11.0 -1 39
r 2.532048 0 2 undefined 128 ------- 0 0.0 2.0 -1 30
r 2.532048 0 4 undefined 128 ------- 0 0.0 4.0 -1 31
r 2.532048 1 3 undefined 128 ------- 0 1.0 3.0 -1 35
r 2.532048 1 5 undefined 128 ------- 0 1.0 5.0 -1 36
r 2.533072 0 2 undefined 128 ------- 0 0.0 6.0 -1 32
+ 2.533072 2 6 undefined 128 ------- 0 0.0 6.0 -1 32
- 2.533072 2 6 undefined 128 ------- 0 0.0 6.0 -1 32
r 2.533072 1 3 undefined 128 ------- 0 1.0 7.0 -1 37
+ 2.533072 3 7 undefined 128 ------- 0 1.0 7.0 -1 37
- 2.533072 3 7 undefined 128 ------- 0 1.0 7.0 -1 37
r 2.534096 0 2 undefined 128 ------- 0 0.0 8.0 -1 33
+ 2.534096 2 8 undefined 128 ------- 0 0.0 8.0 -1 33
- 2.534096 2 8 undefined 128 ------- 0 0.0 8.0 -1 33
r 2.534096 1 3 undefined 128 ------- 0 1.0 9.0 -1 38
+ 2.534096 3 9 undefined 128 ------- 0 1.0 9.0 -1 38
- 2.534096 3 9 undefined 128 ------- 0 1.0 9.0 -1 38
r 2.537168 0 2 undefined 384 ------- 0 0.0 10.0 -1 34
+ 2.537168 2 10 undefined 384 ------- 0 0.0 10.0 -1 34
- 2.537168 2 10 undefined 384 ------- 0 0.0 10.0 -1 34
r 2.537168 1 3 undefined 384 ------- 0 1.0 11.0 -1 39
+ 2.537168 3 11 undefined 384 ------- 0 1.0 11.0 -1 39
- 2.537168 3 11 undefined 384 ------- 0 1.0 11.0 -1 39
r 2.544096 2 6 undefined 128 ------- 0 0.0 6.0 -1 32
r 2.544096 3 7 undefined 128 ------- 0 1.0 7.0 -1 37
r 2.54512 2 8 undefined 128 ------- 0 0.0 8.0 -1 33
r 2.54512 3 9 undefined 128 ------- 0 1.0 9.0 -1 38
r 2.55024 2 10 undefined 384 ------- 0 0.0 10.0 -1 34
r 2.55024 3 11 undefined 384 ------- 0 1.0 11.0 -1 39
+ 3 12 2 undefined 64 ------- 0 12.0 0.0 -1 40
- 3 12 2 undefined 64 ------- 0 12.0 0.0 -1 40
+ 3 13 3 undefined 64 ------- 0 13.0 1.0 -1 41
- 3 13 3 undefined 64 ------- 0 13.0 1.0 -1 41
r 3.010512 12 2 undefined 64 ------- 0 12.0 0.0 -1 40
+ 3.010512 2 0 undefined 64 ------- 0 12.0 0.0 -1 40
- 3.010512 2 0 undefined 64 ------- 0 12.0 0.0 -1 40
r 3.010512 13 3 undefined 64 ------- 0 13.0 1.0 -1 41
+ 3.010512 3 1 undefined 64 ------- 0 13.0 1.0 -1 41
- 3.010512 3 1 undefined 64 ------- 0 13.0 1.0 -1 41
r 3.021024 2 0 undefined 64 ------- 0 12.0 0.0 -1 40
+ 3.021024 0 2 undefined 128 ------- 0 0.0 2.0 -1 42
- 3.021024 0 2 undefined 128 ------- 0 0.0 2.0 -1 42
+ 3.021024 0 4 undefined 128 ------- 0 0.0 4.0 -1 43
- 3.021024 0 4 undefined 128 ------- 0 0.0 4.0 -1 43
+ 3.021024 0 2 undefined 128 ------- 0 0.0 6.0 -1 44
+ 3.021024 0 2 undefined 128 ------- 0 0.0 8.0 -1 45
+ 3.021024 0 2 undefined 128 ------- 0 0.0 10.0 -1 46
+ 3.021024 0 2 undefined 448 ------- 0 0.0 12.0 -1 47
r 3.021024 3 1 undefined 64 ------- 0 13.0 1.0 -1 41
+ 3.021024 1 3 undefined 128 ------- 0 1.0 3.0 -1 48
- 3.021024 1 3 undefined 128 ------- 0 1.0 3.0 -1 48
+ 3.021024 1 5 undefined 128 ------- 0 1.0 5.0 -1 49
- 3.021024 1 5 undefined 128 ------- 0 1.0 5.0 -1 49
+ 3.021024 1 3 undefined 128 ------- 0 1.0 7.0 -1 50
+ 3.021024 1 3 undefined 128 ------- 0 1.0 9.0 -1 51
+ 3.021024 1 3 undefined 128 ------- 0 1.0 11.0 -1 52
+ 3.021024 1 3 undefined 448 ------- 0 1.0 13.0 -1 53
- 3.022048 0 2 undefined 128 ------- 0 0.0 6.0 -1 44
- 3.022048 1 3 undefined 128 ------- 0 1.0 7.0 -1 50
- 3.023072 0 2 undefined 128 ------- 0 0.0 8.0 -1 45
- 3.023072 1 3 undefined 128 ------- 0 1.0 9.0 -1 51
- 3.024096 0 2 undefined 128 ------- 0 0.0 10.0 -1 46
- 3.024096 1 3 undefined 128 ------- 0 1.0 11.0 -1 52
- 3.02512 0 2 undefined 448 ------- 0 0.0 12.0 -1 47
- 3.02512 1 3 undefined 448 ------- 0 1.0 13.0 -1 53
r 3.032048 0 2 undefined 128 ------- 0 0.0 2.0 -1 42
r 3.032048 0 4 undefined 128 ------- 0 0.0 4.0 -1 43
r 3.032048 1 3 undefined 128 ------- 0 1.0 3.0 -1 48
r 3.032048 1 5 undefined 128 ------- 0 1.0 5.0 -1 49
r 3.033072 0 2 undefined 128 ------- 0 0.0 6.0 -1 44
+ 3.033072 2 6 undefined 128 ------- 0 0.0 6.0 -1 44
- 3.033072 2 6 undefined 128 ------- 0 0.0 6.0 -1 44
r 3.033072 1 3 undefined 128 ------- 0 1.0 7.0 -1 50
+ 3.033072 3 7 undefined 128 ------- 0 1.0 7.0 -1 50
- 3.033072 3 7 undefined 128 ------- 0 1.0 7.0 -1 50
r 3.034096 0 2 undefined 128 ------- 0 0.0 8.0 -1 45
+ 3.034096 2 8 undefined 128 ------- 0 0.0 8.0 -1 45
- 3.034096 2 8 undefined 128 ------- 0 0.0 8.0 -1 45
r 3.034096 1 3 undefined 128 ------- 0 1.0 9.0 -1 51
+ 3.034096 3 9 undefined 128 ------- 0 1.0 9.0 -1 51
- 3.034096 3 9 undefined 128 ------- 0 1.0 9.0 -1 51
r 3.03512 0 2 undefined 128 ------- 0 0.0 10.0 -1 46
+ 3.03512 2 10 undefined 128 ------- 0 0.0 10.0 -1 46
- 3.03512 2 10 undefined 128 ------- 0 0.0 10.0 -1 46
r 3.03512 1 3 undefined 128 ------- 0 1.0 11.0 -1 52
+ 3.03512 3 11 undefined 128 ------- 0 1.0 11.0 -1 52
- 3.03512 3 11 undefined 128 ------- 0 1.0 11.0 -1 52
r 3.038704 0 2 undefined 448 ------- 0 0.0 12.0 -1 47
+ 3.038704 2 12 undefined 448 ------- 0 0.0 12.0 -1 47
- 3.038704 2 12 undefined 448 ------- 0 0.0 12.0 -1 47
r 3.038704 1 3 undefined 448 ------- 0 1.0 13.0 -1 53
+ 3.038704 3 13 undefined 448 ------- 0 1.0 13.0 -1 53
- 3.038704 3 13 undefined 448 ------- 0 1.0 13.0 -1 53
r 3.044096 2 6 undefined 128 ------- 0 0.0 6.0 -1 44
r 3.044096 3 7 undefined 128 ------- 0 1.0 7.0 -1 50
r 3.04512 2 8 undefined 128 ------- 0 0.0 8.0 -1 45
r 3.04512 3 9 undefined 128 ------- 0 1.0 9.0 -1 51
r 3.046144 2 10 undefined 128 ------- 0 0.0 10.0 -1 46
r 3.046144 3 11 undefined 128 ------- 0 1.0 11.0 -1 52
r 3.052288 2 12 undefined 448 ------- 0 0.0 12.0 -1 47
r 3.052288 3 13 undefined 448 ------- 0 1.0 13.0 -1 53
+ 3.5 14 2 undefined 64 ------- 0 14.0 0.0 -1 54
- 3.5 14 2 undefined 64 ------- 0 14.0 0.0 -1 54
+ 3.5 15 3 undefined 64 ------- 0 15.0 1.0 -1 55
- 3.5 15 3 undefined 64 ------- 0 15.0 1.0 -1 55
r 3.510512 14 2 undefined 64 ------- 0 14.0 0.0 -1 54
+ 3.510512 2 0 undefined 64 ------- 0 14.0 0.0 -1 54
- 3.510512 2 0 undefined 64 ------- 0 14.0 0.0 -1 54
r 3.510512 15 3 undefined 64 ------- 0 15.0 1.0 -1 55
+ 3.510512 3 1 undefined 64 ------- 0 15.0 1.0 -1 55
- 3.510512 3 1 undefined 64 ------- 0 15.0 1.0 -1 55
r 3.521024 2 0 undefined 64 ------- 0 14.0 0.0 -1 54
+ 3.521024 0 2 undefined 128 ------- 0 0.0 2.0 -1 56
- 3.521024 0 2 undefined 128 ------- 0 0.0 2.0 -1 56
+ 3.521024 0 4 undefined 128 ------- 0 0.0 4.0 -1 57
- 3.521024 0 4 undefined 128 ------- 0 0.0 4.0 -1 57
+ 3.521024 0 2 undefined 128 ------- 0 0.0 6.0 -1 58
+ 3.521024 0 2 undefined 128 ------- 0 0.0 8.0 -1 59
+ 3.521024 0 2 undefined 128 ------- 0 0.0 10.0 -1 60
+ 3.521024 0 2 undefined 128 ------- 0 0.0 12.0 -1 61
+ 3.521024 0 2 undefined 512 ------- 0 0.0 14.0 -1 62
r 3.521024 3 1 undefined 64 ------- 0 15.0 1.0 -1 55
+ 3.521024 1 3 undefined 128 ------- 0 1.0 3.0 -1 63
- 3.521024 1 3 undefined 128 ------- 0 1.0 3.0 -1 63
+ 3.521024 1 5 undefined 128 ------- 0 1.0 5.0 -1 64
- 3.521024 1 5 undefined 128 ------- 0 1.0 5.0 -1 64
+ 3.521024 1 3 undefined 128 ------- 0 1.0 7.0 -1 65
+ 3.521024 1 3 undefined 128 ------- 0 1.0 9.0 -1 66
+ 3.521024 1 3 undefined 128 ------- 0 1.0 11.0 -1 67
+ 3.521024 1 3 undefined 128 ------- 0 1.0 13.0 -1 68
+ 3.521024 1 3 undefined 512 ------- 0 1.0 15.0 -1 69
- 3.522048 0 2 undefined 128 ------- 0 0.0 6.0 -1 58
- 3.522048 1 3 undefined 128 ------- 0 1.0 7.0 -1 65
- 3.523072 0 2 undefined 128 ------- 0 0.0 8.0 -1 59
- 3.523072 1 3 undefined 128 ------- 0 1.0 9.0 -1 66
- 3.524096 0 2 undefined 128 ------- 0 0.0 10.0 -1 60
- 3.524096 1 3 undefined 128 ------- 0 1.0 11.0 -1 67
- 3.52512 0 2 undefined 128 ------- 0 0.0 12.0 -1 61
- 3.52512 1 3 undefined 128 ------- 0 1.0 13.0 -1 68
- 3.526144 0 2 undefined 512 ------- 0 0.0 14.0 -1 62
- 3.526144 1 3 undefined 512 ------- 0 1.0 15.0 -1 69
r 3.532048 0 2 undefined 128 ------- 0 0.0 2.0 -1 56
r 3.532048 0 4 undefined 128 ------- 0 0.0 4.0 -1 57
r 3.532048 1 3 undefined 128 ------- 0 1.0 3.0 -1 63
r 3.532048 1 5 undefined 128 ------- 0 1.0 5.0 -1 64
r 3.533072 0 2 undefined 128 ------- 0 0.0 6.0 -1 58
+ 3.533072 2 6 undefined 128 ------- 0 0.0 6.0 -1 58
- 3.533072 2 6 undefined 128 ------- 0 0.0 6.0 -1 58
r 3.533072 1 3 undefined 128 ------- 0 1.0 7.0 -1 65
+ 3.533072 3 7 undefined 128 ------- 0 1.0 7.0 -1 65
- 3.533072 3 7 undefined 128 ------- 0 1.0 7.0 -1 65
r 3.534096 0 2 undefined 128 ------- 0 0.0 8.0 -1 59
+ 3.534096 2 8 undefined 128 ------- 0 0.0 8.0 -1 59
- 3.534096 2 8 undefined 128 ------- 0 0.0 8.0 -1 59
r 3.534096 1 3 undefined 128 ------- 0 1.0 9.0 -1 66
+ 3.534096 3 9 undefined 128 ------- 0 1.0 9.0 -1 66
- 3.534096 3 9 undefined 128 ------- 0 1.0 9.0 -1 66
r 3.53512 0 2 undefined 128 ------- 0 0.0 10.0 -1 60
+ 3.53512 2 10 undefined 128 ------- 0 0.0 10.0 -1 60
- 3.53512 2 10 undefined 128 ------- 0 0.0 10.0 -1 60
r 3.53512 1 3 undefined 128 ------- 0 1.0 11.0 -1 67
+ 3.53512 3 11 undefined 128 ------- 0 1.0 11.0 -1 67
- 3.53512 3 11 undefined 128 ------- 0 1.0 11.0 -1 67
r 3.536144 0 2 undefined 128 ------- 0 0.0 12.0 -1 61
+ 3.536144 2 12 undefined 128 ------- 0 0.0 12.0 -1 61
- 3.536144 2 12 undefined 128 ------- 0 0.0 12.0 -1 61
r 3.536144 1 3 undefined 128 ------- 0 1.0 13.0 -1 68
+ 3.536144 3 13 undefined 128 ------- 0 1.0 13.0 -1 68
- 3.536144 3 13 undefined 128 ------- 0 1.0 13.0 -1 68
r 3.54024 0 2 undefined 512 ------- 0 0.0 14.0 -1 62
+ 3.54024 2 14 undefined 512 ------- 0 0.0 14.0 -1 62
- 3.54024 2 14 undefined 512 ------- 0 0.0 14.0 -1 62
r 3.54024 1 3 undefined 512 ------- 0 1.0 15.0 -1 69
+ 3.54024 3 15 undefined 512 ------- 0 1.0 15.0 -1 69
- 3.54024 3 15 undefined 512 ------- 0 1.0 15.0 -1 69
r 3.544096 2 6 undefined 128 ------- 0 0.0 6.0 -1 58
r 3.544096 3 7 undefined 128 ------- 0 1.0 7.0 -1 65
r 3.54512 2 8 undefined 128 ------- 0 0.0 8.0 -1 59
r 3.54512 3 9 undefined 128 ------- 0 1.0 9.0 -1 66
r 3.546144 2 10 undefined 128 ------- 0 0.0 10.0 -1 60
r 3.546144 3 11 undefined 128 ------- 0 1.0 11.0 -1 67
r 3.547168 2 12 undefined 128 ------- 0 0.0 12.0 -1 61
r 3.547168 3 13 undefined 128 ------- 0 1.0 13.0 -1 68
r 3.554336 2 14 undefined 512 ------- 0 0.0 14.0 -1 62
r 3.554336 3 15 undefined 512 ------- 0 1.0 15.0 -1 69
+ 4 16 2 undefined 64 ------- 0 16.0 0.0 -1 70
- 4 16 2 undefined 64 ------- 0 16.0 0.0 -1 70
+ 4 17 3 undefined 64 ------- 0 17.0 1.0 -1 71
- 4 17 3 undefined 64 ------- 0 17.0 1.0 -1 71
r 4.010512 16 2 undefined 64 ------- 0 16.0 0.0 -1 70
+ 4.010512 2 0 undefined 64 ------- 0 16.0 0.0 -1 70
- 4.010512 2 0 undefined 64 ------- 0 16.0 0.0 -1 70
r 4.010512 17 3 undefined 64 ------- 0 17.0 1.0 -1 71
+ 4.010512 3 1 undefined 64 ------- 0 17.0 1.0 -1 71
- 4.010512 3 1 undefined 64 ------- 0 17.0 1.0 -1 71
r 4.021024 2 0 undefined 64 ------- 0 16.0 0.0 -1 70
+ 4.021024 0 2 undefined 128 ------- 0 0.0 2.0 -1 72
- 4.021024 0 2 undefined 128 ------- 0 0.0 2.0 -1 72
+ 4.021024 0 4 undefined 128 ------- 0 0.0 4.0 -1 73
- 4.021024 0 4 undefined 128 ------- 0 0.0 4.0 -1 73
+ 4.021024 0 2 undefined 128 ------- 0 0.0 6.0 -1 74
+ 4.021024 0 2 undefined 128 ------- 0 0.0 8.0 -1 75
+ 4.021024 0 2 undefined 128 ------- 0 0.0 10.0 -1 76
+ 4.021024 0 2 undefined 128 ------- 0 0.0 12.0 -1 77
+ 4.021024 0 2 undefined 128 ------- 0 0.0 14.0 -1 78
+ 4.021024 0 2 undefined 576 ------- 0 0.0 16.0 -1 79
r 4.021024 3 1 undefined 64 ------- 0 17.0 1.0 -1 71
+ 4.021024 1 3 undefined 128 ------- 0 1.0 3.0 -1 80
- 4.021024 1 3 undefined 128 ------- 0 1.0 3.0 -1 80
+ 4.021024 1 5 undefined 128 ------- 0 1.0 5.0 -1 81
- 4.021024 1 5 undefined 128 ------- 0 1.0 5.0 -1 81
+ 4.021024 1 3 undefined 128 ------- 0 1.0 7.0 -1 82
+ 4.021024 1 3 undefined 128 ------- 0 1.0 9.0 -1 83
+ 4.021024 1 3 undefined 128 ------- 0 1.0 11.0 -1 84
+ 4.021024 1 3 undefined 128 ------- 0 1.0 13.0 -1 85
+ 4.021024 1 3 undefined 128 ------- 0 1.0 15.0 -1 86
+ 4.021024 1 3 undefined 576 ------- 0 1.0 17.0 -1 87
- 4.022048 0 2 undefined 128 ------- 0 0.0 6.0 -1 74
- 4.022048 1 3 undefined 128 ------- 0 1.0 7.0 -1 82
- 4.023072 0 2 undefined 128 ------- 0 0.0 8.0 -1 75
- 4.023072 1 3 undefined 128 ------- 0 1.0 9.0 -1 83
- 4.024096 0 2 undefined 128 ------- 0 0.0 10.0 -1 76
- 4.024096 1 3 undefined 128 ------- 0 1.0 11.0 -1 84
- 4.02512 0 2 undefined 128 ------- 0 0.0 12.0 -1 77
- 4.02512 1 3 undefined 128 ------- 0 1.0 13.0 -1 85
- 4.026144 0 2 undefined 128 ------- 0 0.0 14.0 -1 78
- 4.026144 1 3 undefined 128 ------- 0 1.0 15.0 -1 86
- 4.027168 0 2 undefined 576 ------- 0 0.0 16.0 -1 79
- 4.027168 1 3 undefined 576 ------- 0 1.0 17.0 -1 87
r 4.032048 0 2 undefined 128 ------- 0 0.0 2.0 -1 72
r 4.032048 0 4 undefined 128 ------- 0 0.0 4.0 -1 73
r 4.032048 1 3 undefined 128 ------- 0 1.0 3.0 -1 80
r 4.032048 1 5 undefined 128 ------- 0 1.0 5.0 -1 81
r 4.033072 0 2 undefined 128 ------- 0 0.0 6.0 -1 74
+ 4.033072 2 6 undefined 128 ------- 0 0.0 6.0 -1 74
- 4.033072 2 6 undefined 128 ------- 0 0.0 6.0 -1 74
r 4.033072 1 3 undefined 128 ------- 0 1.0 7.0 -1 82
+ 4.033072 3 7 undefined 128 ------- 0 1.0 7.0 -1 82
- 4.033072 3 7 undefined 128 ------- 0 1.0 7.0 -1 82
r 4.034096 0 2 undefined 128 ------- 0 0.0 8.0 -1 75
+ 4.034096 2 8 undefined 128 ------- 0 0.0 8.0 -1 75
- 4.034096 2 8 undefined 128 ------- 0 0.0 8.0 -1 75
r 4.034096 1 3 undefined 128 ------- 0 1.0 9.0 -1 83
+ 4.034096 3 9 undefined 128 ------- 0 1.0 9.0 -1 83
- 4.034096 3 9 undefined 128 ------- 0 1.0 9.0 -1 83
r 4.03512 0 2 undefined 128 ------- 0 0.0 10.0 -1 76
+ 4.03512 2 10 undefined 128 ------- 0 0.0 10.0 -1 76
- 4.03512 2 10 undefined 128 ------- 0 0.0 10.0 -1 76
r 4.03512 1 3 undefined 128 ------- 0 1.0 11.0 -1 84
+ 4.03512 3 11 undefined 128 ------- 0 1.0 11.0 -1 84
- 4.03512 3 11 undefined 128 ------- 0 1.0 11.0 -1 84
r 4.036144 0 2 undefined 128 ------- 0 0.0 12.0 -1 77
+ 4.036144 2 12 undefined 128 ------- 0 0.0 12.0 -1 77
- 4.036144 2 12 undefined 128 ------- 0 0.0 12.0 -1 77
r 4.036144 1 3 undefined 128 ------- 0 1.0 13.0 -1 85
+ 4.036144 3 13 undefined 128 ------- 0 1.0 13.0 -1 85
- 4.036144 3 13 undefined 128 ------- 0 1.0 13.0 -1 85
r 4.037168 0 2 undefined 128 ------- 0 0.0 14.0 -1 78
+ 4.037168 2 14 undefined 128 ------- 0 0.0 14.0 -1 78
- 4.037168 2 14 undefined 128 ------- 0 0.0 14.0 -1 78
r 4.037168 1 3 undefined 128 ------- 0 1.0 15.0 -1 86
+ 4.037168 3 15 undefined 128 ------- 0 1.0 15.0 -1 86
- 4.037168 3 15 undefined 128 ------- 0 1.0 15.0 -1 86
r 4.041776 0 2 undefined 576 ------- 0 0.0 16.0 -1 79
+ 4.041776 2 16 undefined 576 ------- 0 0.0 16.0 -1 79
- 4.041776 2 16 undefined 576 ------- 0 0.0 16.0 -1 79
r 4.041776 1 3 undefined 576 ------- 0 1.0 17.0 -1 87
+ 4.041776 3 17 undefined 576 ------- 0 1.0 17.0 -1 87
- 4.041776 3 17 undefined 576 ------- 0 1.0 17.0 -1 87
r 4.044096 2 6 undefined 128 ------- 0 0.0 6.0 -1 74
r 4.044096 3 7 undefined 128 ------- 0 1.0 7.0 -1 82
r 4.04512 2 8 undefined 128 ------- 0 0.0 8.0 -1 75
r 4.04512 3 9 undefined 128 ------- 0 1.0 9.0 -1 83
r 4.046144 2 10 undefined 128 ------- 0 0.0 10.0 -1 76
r 4.046144 3 11 undefined 128 ------- 0 1.0 11.0 -1 84
r 4.047168 2 12 undefined 128 ------- 0 0.0 12.0 -1 77
r 4.047168 3 13 undefined 128 ------- 0 1.0 13.0 -1 85
r 4.048192 2 14 undefined 128 ------- 0 0.0 14.0 -1 78
r 4.048192 3 15 undefined 128 ------- 0 1.0 15.0 -1 86
r 4.056384 2 16 undefined 576 ------- 0 0.0 16.0 -1 79
r 4.056384 3 17 undefined 576 ------- 0 1.0 17.0 -1 87
+ 4.5 18 2 undefined 64 ------- 0 18.0 0.0 -1 88
- 4.5 18 2 undefined 64 ------- 0 18.0 0.0 -1 88
+ 4.5 19 3 undefined 64 ------- 0 19.0 1.0 -1 89
- 4.5 19 3 undefined 64 ------- 0 19.0 1.0 -1 89
r 4.510512 18 2 undefined 64 ------- 0 18.0 0.0 -1 88
+ 4.510512 2 0 undefined 64 ------- 0 18.0 0.0 -1 88
- 4.510512 2 0 undefined 64 ------- 0 18.0 0.0 -1 88
r 4.510512 19 3 undefined 64 ------- 0 19.0 1.0 -1 89
+ 4.510512 3 1 undefined 64 ------- 0 19.0 1.0 -1 89
- 4.510512 3 1 undefined 64 ------- 0 19.0 1.0 -1 89
r 4.521024 2 0 undefined 64 ------- 0 18.0 0.0 -1 88
+ 4.521024 0 2 undefined 128 ------- 0 0.0 2.0 -1 90
- 4.521024 0 2 undefined 128 ------- 0 0.0 2.0 -1 90
+ 4.521024 0 4 undefined 128 ------- 0 0.0 4.0 -1 91
- 4.521024 0 4 undefined 128 ------- 0 0.0 4.0 -1 91
+ 4.521024 0 2 undefined 128 ------- 0 0.0 6.0 -1 92
+ 4.521024 0 2 undefined 128 ------- 0 0.0 8.0 -1 93
+ 4.521024 0 2 undefined 128 ------- 0 0.0 10.0 -1 94
+ 4.521024 0 2 undefined 128 ------- 0 0.0 12.0 -1 95
+ 4.521024 0 2 undefined 128 ------- 0 0.0 14.0 -1 96
+ 4.521024 0 2 undefined 128 ------- 0 0.0 16.0 -1 97
+ 4.521024 0 2 undefined 640 ------- 0 0.0 18.0 -1 98
r 4.521024 3 1 undefined 64 ------- 0 19.0 1.0 -1 89
+ 4.521024 1 3 undefined 128 ------- 0 1.0 3.0 -1 99
- 4.521024 1 3 undefined 128 ------- 0 1.0 3.0 -1 99
+ 4.521024 1 5 undefined 128 ------- 0 1.0 5.0 -1 100
- 4.521024 1 5 undefined 128 ------- 0 1.0 5.0 -1 100
+ 4.521024 1 3 undefined 128 ------- 0 1.0 7.0 -1 101
+ 4.521024 1 3 undefined 128 ------- 0 1.0 9.0 -1 102
+ 4.521024 1 3 undefined 128 ------- 0 1.0 11.0 -1 103
+ 4.521024 1 3 undefined 128 ------- 0 1.0 13.0 -1 104
+ 4.521024 1 3 undefined 128 ------- 0 1.0 15.0 -1 105
+ 4.521024 1 3 undefined 128 ------- 0 1.0 17.0 -1 106
+ 4.521024 1 3 undefined 640 ------- 0 1.0 19.0 -1 107
- 4.522048 0 2 undefined 128 ------- 0 0.0 6.0 -1 92
- 4.522048 1 3 undefined 128 ------- 0 1.0 7.0 -1 101
- 4.523072 0 2 undefined 128 ------- 0 0.0 8.0 -1 93
- 4.523072 1 3 undefined 128 ------- 0 1.0 9.0 -1 102
- 4.524096 0 2 undefined 128 ------- 0 0.0 10.0 -1 94
- 4.524096 1 3 undefined 128 ------- 0 1.0 11.0 -1 103
- 4.52512 0 2 undefined 128 ------- 0 0.0 12.0 -1 95
- 4.52512 1 3 undefined 128 ------- 0 1.0 13.0 -1 104
- 4.526144 0 2 undefined 128 ------- 0 0.0 14.0 -1 96
- 4.526144 1 3 undefined 128 ------- 0 1.0 15.0 -1 105
- 4.527168 0 2 undefined 128 ------- 0 0.0 16.0 -1 97
- 4.527168 1 3 undefined 128 ------- 0 1.0 17.0 -1 106
- 4.528192 0 2 undefined 640 ------- 0 0.0 18.0 -1 98
- 4.528192 1 3 undefined 640 ------- 0 1.0 19.0 -1 107
r 4.532048 0 2 undefined 128 ------- 0 0.0 2.0 -1 90
r 4.532048 0 4 undefined 128 ------- 0 0.0 4.0 -1 91
r 4.532048 1 3 undefined 128 ------- 0 1.0 3.0 -1 99
r 4.532048 1 5 undefined 128 ------- 0 1.0 5.0 -1 100
r 4.533072 0 2 undefined 128 ------- 0 0.0 6.0 -1 92
+ 4.533072 2 6 undefined 128 ------- 0 0.0 6.0 -1 92
- 4.533072 2 6 undefined 128 ------- 0 0.0 6.0 -1 92
r 4.533072 1 3 undefined 128 ------- 0 1.0 7.0 -1 101
+ 4.533072 3 7 undefined 128 ------- 0 1.0 7.0 -1 101
- 4.533072 3 7 undefined 128 ------- 0 1.0 7.0 -1 101
r 4.534096 0 2 undefined 128 ------- 0 0.0 8.0 -1 93
+ 4.534096 2 8 undefined 128 ------- 0 0.0 8.0 -1 93
- 4.534096 2 8 undefined 128 ------- 0 0.0 8.0 -1 93
r 4.534096 1 3 undefined 128 ------- 0 1.0 9.0 -1 102
+ 4.534096 3 9 undefined 128 ------- 0 1.0 9.0 -1 102
- 4.534096 3 9 undefined 128 ------- 0 1.0 9.0 -1 102
r 4.53512 0 2 undefined 128 ------- 0 0.0 10.0 -1 94
+ 4.53512 2 10 undefined 128 ------- 0 0.0 10.0 -1 94
- 4.53512 2 10 undefined 128 ------- 0 0.0 10.0 -1 94
r 4.53512 1 3 undefined 128 ------- 0 1.0 11.0 -1 103
+ 4.53512 3 11 undefined 128 ------- 0 1.0 11.0 -1 103
- 4.53512 3 11 undefined 128 ------- 0 1.0 11.0 -1 103
r 4.536144 0 2 undefined 128 ------- 0 0.0 12.0 -1 95
+ 4.536144 2 12 undefined 128 ------- 0 0.0 12.0 -1 95
- 4.536144 2 12 undefined 128 ------- 0 0.0 12.0 -1 95
r 4.536144 1 3 undefined 128 ------- 0 1.0 13.0 -1 104
+ 4.536144 3 13 undefined 128 ------- 0 1.0 13.0 -1 104
- 4.536144 3 13 undefined 128 ------- 0 1.0 13.0 -1 104
r 4.537168 0 2 undefined 128 ------- 0 0.0 14.0 -1 96
+ 4.537168 2 14 undefined 128 ------- 0 0.0 14.0 -1 96
- 4.537168 2 14 undefined 128 ------- 0 0.0 14.0 -1 96
r 4.537168 1 3 undefined 128 ------- 0 1.0 15.0 -1 105
+ 4.537168 3 15 undefined 128 ------- 0 1.0 15.0 -1 105
- 4.537168 3 15 undefined 128 ------- 0 1.0 15.0 -1 105
r 4.538192 0 2 undefined 128 ------- 0 0.0 16.0 -1 97
+ 4.538192 2 16 undefined 128 ------- 0 0.0 16.0 -1 97
- 4.538192 2 16 undefined 128 ------- 0 0.0 16.0 -1 97
r 4.538192 1 3 undefined 128 ------- 0 1.0 17.0 -1 106
+ 4.538192 3 17 undefined 128 ------- 0 1.0 17.0 -1 106
- 4.538192 3 17 undefined 128 ------- 0 1.0 17.0 -1 106
r 4.543312 0 2 undefined 640 ------- 0 0.0 18.0 -1 98
+ 4.543312 2 18 undefined 640 ------- 0 0.0 18.0 -1 98
- 4.543312 2 18 undefined 640 ------- 0 0.0 18.0 -1 98
r 4.543312 1 3 undefined 640 ------- 0 1.0 19.0 -1 107
+ 4.543312 3 19 undefined 640 ------- 0 1.0 19.0 -1 107
- 4.543312 3 19 undefined 640 ------- 0 1.0 19.0 -1 107
r 4.544096 2 6 undefined 128 ------- 0 0.0 6.0 -1 92
r 4.544096 3 7 undefined 128 ------- 0 1.0 7.0 -1 101
r 4.54512 2 8 undefined 128 ------- 0 0.0 8.0 -1 93
r 4.54512 3 9 undefined 128 ------- 0 1.0 9.0 -1 102
r 4.546144 2 10 undefined 128 ------- 0 0.0 10.0 -1 94
r 4.546144 3 11 undefined 128 ------- 0 1.0 11.0 -1 103
r 4.547168 2 12 undefined 128 ------- 0 0.0 12.0 -1 95
r 4.547168 3 13 undefined 128 ------- 0 1.0 13.0 -1 104
r 4.548192 2 14 undefined 128 ------- 0 0.0 14.0 -1 96
r 4.548192 3 15 undefined 128 ------- 0 1.0 15.0 -1 105
r 4.549216 2 16 undefined 128 ------- 0 0.0 16.0 -1 97
r 4.549216 3 17 undefined 128 ------- 0 1.0 17.0 -1 106
r 4.558432 2 18 undefined 640 ------- 0 0.0 18.0 -1 98
r 4.558432 3 19 undefined 640 ------- 0 1.0 19.0 -1 107
+ 5 20 2 undefined 64 ------- 0 20.0 0.0 -1 108
- 5 20 2 undefined 64 ------- 0 20.0 0.0 -1 108
+ 5 21 3 undefined 64 ------- 0 21.0 1.0 -1 109
- 5 21 3 undefined 64 ------- 0 21.0 1.0 -1 109
r 5.010512 20 2 undefined 64 ------- 0 20.0 0.0 -1 108
+ 5.010512 2 0 undefined 64 ------- 0 20.0 0.0 -1 108
- 5.010512 2 0 undefined 64 ------- 0 20.0 0.0 -1 108
r 5.010512 21 3 undefined 64 ------- 0 21.0 1.0 -1 109
+ 5.010512 3 1 undefined 64 ------- 0 21.0 1.0 -1 109
- 5.010512 3 1 undefined 64 ------- 0 21.0 1.0 -1 109
r 5.021024 2 0 undefined 64 ------- 0 20.0 0.0 -1 108
+ 5.021024 0 2 undefined 128 ------- 0 0.0 2.0 -1 110
- 5.021024 0 2 undefined 128 ------- 0 0.0 2.0 -1 110
+ 5.021024 0 4 undefined 128 ------- 0 0.0 4.0 -1 111
- 5.021024 0 4 undefined 128 ------- 0 0.0 4.0 -1 111
+ 5.021024 0 2 undefined 128 ------- 0 0.0 6.0 -1 112
+ 5.021024 0 2 undefined 128 ------- 0 0.0 8.0 -1 113
+ 5.021024 0 2 undefined 128 ------- 0 0.0 10.0 -1 114
+ 5.021024 0 2 undefined 128 ------- 0 0.0 12.0 -1 115
+ 5.021024 0 2 undefined 128 ------- 0 0.0 14.0 -1 116
+ 5.021024 0 2 undefined 128 ------- 0 0.0 16.0 -1 117
+ 5.021024 0 2 undefined 128 ------- 0 0.0 18.0 -1 118
+ 5.021024 0 2 undefined 704 ------- 0 0.0 20.0 -1 119
r 5.021024 3 1 undefined 64 ------- 0 21.0 1.0 -1 109
+ 5.021024 1 3 undefined 128 ------- 0 1.0 3.0 -1 120
- 5.021024 1 3 undefined 128 ------- 0 1.0 3.0 -1 120
+ 5.021024 1 5 undefined 128 ------- 0 1.0 5.0 -1 121
- 5.021024 1 5 undefined 128 ------- 0 1.0 5.0 -1 121
+ 5.021024 1 3 undefined 128 ------- 0 1.0 7.0 -1 122
+ 5.021024 1 3 undefined 128 ------- 0 1.0 9.0 -1 123
+ 5.021024 1 3 undefined 128 ------- 0 1.0 11.0 -1 124