+ 1 2 0 undefined 64 ------- 0 2.0 0.0 -1 0
- 1 2 0 undefined 64 ------- 0 2.0 0.0 -1 0
r 1.010512 2 0 undefined 64 ------- 0 2.0 0.0 -1 0
+ 1.010512 0 2 undefined 128 ------- 0 0.0 2.0 -1 1
- 1.010512 0 2 undefined 128 ------- 0 0.0 2.0 -1 1
r 1.021536 0 2 undefined 128 ------- 0 0.0 2.0 -1 1
+ 2 4 0 undefined 64 ------- 0 4.0 0.0 -1 2
- 2 4 0 undefined 64 ------- 0 4.0 0.0 -1 2
r 2.010512 4 0 undefined 64 ------- 0 4.0 0.0 -1 2
+ 2.010512 0 2 undefined 128 ------- 0 0.0 2.0 -1 3
- 2.010512 0 2 undefined 128 ------- 0 0.0 2.0 -1 3
+ 2.010512 0 4 undefined 128 ------- 0 0.0 4.0 -1 4
- 2.010512 0 4 undefined 128 ------- 0 0.0 4.0 -1 4
r 2.021536 0 2 undefined 128 ------- 0 0.0 2.0 -1 3
r 2.021536 0 4 undefined 128 ------- 0 0.0 4.0 -1 4
+ 3 6 2 undefined 64 ------- 0 6.0 0.0 -1 5
- 3 6 2 undefined 64 ------- 0 6.0 0.0 -1 5
r 3.010512 6 2 undefined 64 ------- 0 6.0 0.0 -1 5
+ 3.010512 2 0 undefined 64 ------- 0 6.0 0.0 -1 5
- 3.010512 2 0 undefined 64 ------- 0 6.0 0.0 -1 5
r 3.021024 2 0 undefined 64 ------- 0 6.0 0.0 -1 5
+ 3.021024 0 2 undefined 192 ------- 0 0.0 2.0 -1 6
- 3.021024 0 2 undefined 192 ------- 0 0.0 2.0 -1 6
+ 3.021024 0 4 undefined 192 ------- 0 0.0 4.0 -1 7
- 3.021024 0 4 undefined 192 ------- 0 0.0 4.0 -1 7
+ 3.021024 0 2 undefined 192 ------- 0 0.0 6.0 -1 8
- 3.02256 0 2 undefined 192 ------- 0 0.0 6.0 -1 8
r 3.03256 0 2 undefined 192 ------- 0 0.0 2.0 -1 6
r 3.03256 0 4 undefined 192 ------- 0 0.0 4.0 -1 7
r 3.034096 0 2 undefined 192 ------- 0 0.0 6.0 -1 8
+ 3.034096 2 6 undefined 192 ------- 0 0.0 6.0 -1 8
- 3.034096 2 6 undefined 192 ------- 0 0.0 6.0 -1 8
r 3.045632 2 6 undefined 192 ------- 0 0.0 6.0 -1 8
+ 4 8 2 undefined 64 ------- 0 8.0 0.0 -1 9
- 4 8 2 undefined 64 ------- 0 8.0 0.0 -1 9
r 4.010512 8 2 undefined 64 ------- 0 8.0 0.0 -1 9
+ 4.010512 2 0 undefined 64 ------- 0 8.0 0.0 -1 9
- 4.010512 2 0 undefined 64 ------- 0 8.0 0.0 -1 9
r 4.021024 2 0 undefined 64 ------- 0 8.0 0.0 -1 9
+ 4.021024 0 2 undefined 192 ------- 0 0.0 2.0 -1 10
- 4.021024 0 2 undefined 192 ------- 0 0.0 2.0 -1 10
+ 4.021024 0 4 undefined 192 ------- 0 0.0 4.0 -1 11
- 4.021024 0 4 undefined 192 ------- 0 0.0 4.0 -1 11
+ 4.021024 0 2 undefined 192 ------- 0 0.0 6.0 -1 12
+ 4.021024 0 2 undefined 192 ------- 0 0.0 8.0 -1 13
- 4.02256 0 2 undefined 192 ------- 0 0.0 6.0 -1 12
- 4.024096 0 2 undefined 192 ------- 0 0.0 8.0 -1 13
r 4.03256 0 2 undefined 192 ------- 0 0.0 2.0 -1 10
r 4.03256 0 4 undefined 192 ------- 0 0.0 4.0 -1 11
r 4.034096 0 2 undefined 192 ------- 0 0.0 6.0 -1 12
+ 4.034096 2 6 undefined 192 ------- 0 0.0 6.0 -1 12
- 4.034096 2 6 undefined 192 ------- 0 0.0 6.0 -1 12
r 4.035632 0 2 undefined 192 ------- 0 0.0 8.0 -1 13
+ 4.035632 2 8 undefined 192 ------- 0 0.0 8.0 -1 13
- 4.035632 2 8 undefined 192 ------- 0 0.0 8.0 -1 13
r 4.045632 2 6 undefined 192 ------- 0 0.0 6.0 -1 12
r 4.047168 2 8 undefined 192 ------- 0 0.0 8.0 -1 13
+ 5 10 2 undefined 64 ------- 0 10.0 0.0 -1 14
- 5 10 2 undefined 64 ------- 0 10.0 0.0 -1 14
r 5.010512 10 2 undefined 64 ------- 0 10.0 0.0 -1 14
+ 5.010512 2 0 undefined 64 ------- 0 10.0 0.0 -1 14
- 5.010512 2 0 undefined 64 ------- 0 10.0 0.0 -1 14
r 5.021024 2 0 undefined 64 ------- 0 10.0 0.0 -1 14
+ 5.021024 0 2 undefined 256 ------- 0 0.0 2.0 -1 15
- 5.021024 0 2 undefined 256 ------- 0 0.0 2.0 -1 15
+ 5.021024 0 4 undefined 256 ------- 0 0.0 4.0 -1 16
- 5.021024 0 4 undefined 256 ------- 0 0.0 4.0 -1 16
+ 5.021024 0 2 undefined 256 ------- 0 0.0 6.0 -1 17
+ 5.021024 0 2 undefined 256 ------- 0 0.0 8.0 -1 18
+ 5.021024 0 2 undefined 256 ------- 0 0.0 10.0 -1 19
- 5.023072 0 2 undefined 256 ------- 0 0.0 6.0 -1 17
- 5.02512 0 2 undefined 256 ------- 0 0.0 8.0 -1 18
- 5.027168 0 2 undefined 256 ------- 0 0.0 10.0 -1 19
r 5.033072 0 2 undefined 256 ------- 0 0.0 2.0 -1 15
r 5.033072 0 4 undefined 256 ------- 0 0.0 4.0 -1 16
r 5.03512 0 2 undefined 256 ------- 0 0.0 6.0 -1 17
+ 5.03512 2 6 undefined 256 ------- 0 0.0 6.0 -1 17
- 5.03512 2 6 undefined 256 ------- 0 0.0 6.0 -1 17
r 5.037168 0 2 undefined 256 ------- 0 0.0 8.0 -1 18
+ 5.037168 2 8 undefined 256 ------- 0 0.0 8.0 -1 18
- 5.037168 2 8 undefined 256 ------- 0 0.0 8.0 -1 18
r 5.039216 0 2 undefined 256 ------- 0 0.0 10.0 -1 19
+ 5.039216 2 10 undefined 256 ------- 0 0.0 10.0 -1 19
- 5.039216 2 10 undefined 256 ------- 0 0.0 10.0 -1 19
r 5.047168 2 6 undefined 256 ------- 0 0.0 6.0 -1 17
r 5.049216 2 8 undefined 256 ------- 0 0.0 8.0 -1 18
r 5.051264 2 10 undefined 256 ------- 0 0.0 10.0 -1 19
+ 6 12 2 undefined 64 ------- 0 12.0 0.0 -1 20
- 6 12 2 undefined 64 ------- 0 12.0 0.0 -1 20
r 6.010512 12 2 undefined 64 ------- 0 12.0 0.0 -1 20
+ 6.010512 2 0 undefined 64 ------- 0 12.0 0.0 -1 20
- 6.010512 2 0 undefined 64 ------- 0 12.0 0.0 -1 20
r 6.021024 2 0 undefined 64 ------- 0 12.0 0.0 -1 20
+ 6.021024 0 2 undefined 256 ------- 0 0.0 2.0 -1 21
- 6.021024 0 2 undefined 256 ------- 0 0.0 2.0 -1 21
+ 6.021024 0 4 undefined 256 ------- 0 0.0 4.0 -1 22
- 6.021024 0 4 undefined 256 ------- 0 0.0 4.0 -1 22
+ 6.021024 0 2 undefined 256 ------- 0 0.0 6.0 -1 23
+ 6.021024 0 2 undefined 256 ------- 0 0.0 8.0 -1 24
+ 6.021024 0 2 undefined 256 ------- 0 0.0 10.0 -1 25
+ 6.021024 0 2 undefined 256 ------- 0 0.0 12.0 -1 26
- 6.023072 0 2 undefined 256 ------- 0 0.0 6.0 -1 23
- 6.02512 0 2 undefined 256 ------- 0 0.0 8.0 -1 24
- 6.027168 0 2 undefined 256 ------- 0 0.0 10.0 -1 25
- 6.029216 0 2 undefined 256 ------- 0 0.0 12.0 -1 26
r 6.033072 0 2 undefined 256 ------- 0 0.0 2.0 -1 21
r 6.033072 0 4 undefined 256 ------- 0 0.0 4.0 -1 22
r 6.03512 0 2 undefined 256 ------- 0 0.0 6.0 -1 23
+ 6.03512 2 6 undefined 256 ------- 0 0.0 6.0 -1 23
- 6.03512 2 6 undefined 256 ------- 0 0.0 6.0 -1 23
r 6.037168 0 2 undefined 256 ------- 0 0.0 8.0 -1 24
+ 6.037168 2 8 undefined 256 ------- 0 0.0 8.0 -1 24
- 6.037168 2 8 undefined 256 ------- 0 0.0 8.0 -1 24
r 6.039216 0 2 undefined 256 ------- 0 0.0 10.0 -1 25
+ 6.039216 2 10 undefined 256 ------- 0 0.0 10.0 -1 25
- 6.039216 2 10 undefined 256 ------- 0 0.0 10.0 -1 25
r 6.041264 0 2 undefined 256 ------- 0 0.0 12.0 -1 26
+ 6.041264 2 12 undefined 256 ------- 0 0.0 12.0 -1 26
- 6.041264 2 12 undefined 256 ------- 0 0.0 12.0 -1 26
r 6.047168 2 6 undefined 256 ------- 0 0.0 6.0 -1 23
r 6.049216 2 8 undefined 256 ------- 0 0.0 8.0 -1 24
r 6.051264 2 10 undefined 256 ------- 0 0.0 10.0 -1 25
r 6.053312 2 12 undefined 256 ------- 0 0.0 12.0 -1 26
+ 7 14 2 undefined 64 ------- 0 14.0 0.0 -1 27
- 7 14 2 undefined 64 ------- 0 14.0 0.0 -1 27
r 7.010512 14 2 undefined 64 ------- 0 14.0 0.0 -1 27
+ 7.010512 2 0 undefined 64 ------- 0 14.0 0.0 -1 27
- 7.010512 2 0 undefined 64 ------- 0 14.0 0.0 -1 27
r 7.021024 2 0 undefined 64 ------- 0 14.0 0.0 -1 27
+ 7.021024 0 2 undefined 320 ------- 0 0.0 2.0 -1 28
- 7.021024 0 2 undefined 320 ------- 0 0.0 2.0 -1 28
+ 7.021024 0 4 undefined 320 ------- 0 0.0 4.0 -1 29
- 7.021024 0 4 undefined 320 ------- 0 0.0 4.0 -1 29
+ 7.021024 0 2 undefined 320 ------- 0 0.0 6.0 -1 30
+ 7.021024 0 2 undefined 320 ------- 0 0.0 8.0 -1 31
+ 7.021024 0 2 undefined 320 ------- 0 0.0 10.0 -1 32
+ 7.021024 0 2 undefined 320 ------- 0 0.0 12.0 -1 33
+ 7.021024 0 2 undefined 320 ------- 0 0.0 14.0 -1 34
- 7.023584 0 2 undefined 320 ------- 0 0.0 6.0 -1 30
- 7.026144 0 2 undefined 320 ------- 0 0.0 8.0 -1 31
- 7.028704 0 2 undefined 320 ------- 0 0.0 10.0 -1 32
- 7.031264 0 2 undefined 320 ------- 0 0.0 12.0 -1 33
r 7.033584 0 2 undefined 320 ------- 0 0.0 2.0 -1 28
r 7.033584 0 4 undefined 320 ------- 0 0.0 4.0 -1 29
- 7.033824 0 2 undefined 320 ------- 0 0.0 14.0 -1 34
r 7.036144 0 2 undefined 320 ------- 0 0.0 6.0 -1 30
+ 7.036144 2 6 undefined 320 ------- 0 0.0 6.0 -1 30
- 7.036144 2 6 undefined 320 ------- 0 0.0 6.0 -1 30
r 7.038704 0 2 undefined 320 ------- 0 0.0 8.0 -1 31
+ 7.038704 2 8 undefined 320 ------- 0 0.0 8.0 -1 31
- 7.038704 2 8 undefined 320 ------- 0 0.0 8.0 -1 31
r 7.041264 0 2 undefined 320 ------- 0 0.0 10.0 -1 32
+ 7.041264 2 10 undefined 320 ------- 0 0.0 10.0 -1 32
- 7.041264 2 10 undefined 320 ------- 0 0.0 10.0 -1 32
r 7.043824 0 2 undefined 320 ------- 0 0.0 12.0 -1 33
+ 7.043824 2 12 undefined 320 ------- 0 0.0 12.0 -1 33
- 7.043824 2 12 undefined 320 ------- 0 0.0 12.0 -1 33
r 7.046384 0 2 undefined 320 ------- 0 0.0 14.0 -1 34
+ 7.046384 2 14 undefined 320 ------- 0 0.0 14.0 -1 34
- 7.046384 2 14 undefined 320 ------- 0 0.0 14.0 -1 34
r 7.048704 2 6 undefined 320 ------- 0 0.0 6.0 -1 30
r 7.051264 2 8 undefined 320 ------- 0 0.0 8.0 -1 31
r 7.053824 2 10 undefined 320 ------- 0 0.0 10.0 -1 32
r 7.056384 2 12 undefined 320 ------- 0 0.0 12.0 -1 33
r 7.058944 2 14 undefined 320 ------- 0 0.0 14.0 -1 34
+ 8 16 2 undefined 64 ------- 0 16.0 0.0 -1 35
- 8 16 2 undefined 64 ------- 0 16.0 0.0 -1 35
r 8.010512 16 2 undefined 64 ------- 0 16.0 0.0 -1 35
+ 8.010512 2 0 undefined 64 ------- 0 16.0 0.0 -1 35
- 8.010512 2 0 undefined 64 ------- 0 16.0 0.0 -1 35
r 8.021024 2 0 undefined 64 ------- 0 16.0 0.0 -1 35
+ 8.021024 0 2 undefined 320 ------- 0 0.0 2.0 -1 36
- 8.021024 0 2 undefined 320 ------- 0 0.0 2.0 -1 36
+ 8.021024 0 4 undefined 320 ------- 0 0.0 4.0 -1 37
- 8.021024 0 4 undefined 320 ------- 0 0.0 4.0 -1 37
+ 8.021024 0 2 undefined 320 ------- 0 0.0 6.0 -1 38
+ 8.021024 0 2 undefined 320 ------- 0 0.0 8.0 -1 39
+ 8.021024 0 2 undefined 320 ------- 0 0.0 10.0 -1 40
+ 8.021024 0 2 undefined 320 ------- 0 0.0 12.0 -1 41
+ 8.021024 0 2 undefined 320 ------- 0 0.0 14.0 -1 42
+ 8.021024 0 2 undefined 320 ------- 0 0.0 16.0 -1 43
- 8.023584 0 2 undefined 320 ------- 0 0.0 6.0 -1 38
- 8.026144 0 2 undefined 320 ------- 0 0.0 8.0 -1 39
- 8.028704 0 2 undefined 320 ------- 0 0.0 10.0 -1 40
- 8.031264 0 2 undefined 320 ------- 0 0.0 12.0 -1 41
r 8.033584 0 2 undefined 320 ------- 0 0.0 2.0 -1 36
r 8.033584 0 4 undefined 320 ------- 0 0.0 4.0 -1 37
- 8.033824 0 2 undefined 320 ------- 0 0.0 14.0 -1 42
r 8.036144 0 2 undefined 320 ------- 0 0.0 6.0 -1 38
+ 8.036144 2 6 undefined 320 ------- 0 0.0 6.0 -1 38
- 8.036144 2 6 undefined 320 ------- 0 0.0 6.0 -1 38
- 8.036384 0 2 undefined 320 ------- 0 0.0 16.0 -1 43
r 8.038704 0 2 undefined 320 ------- 0 0.0 8.0 -1 39
+ 8.038704 2 8 undefined 320 ------- 0 0.0 8.0 -1 39
- 8.038704 2 8 undefined 320 ------- 0 0.0 8.0 -1 39
r 8.041264 0 2 undefined 320 ------- 0 0.0 10.0 -1 40
+ 8.041264 2 10 undefined 320 ------- 0 0.0 10.0 -1 40
- 8.041264 2 10 undefined 320 ------- 0 0.0 10.0 -1 40
r 8.043824 0 2 undefined 320 ------- 0 0.0 12.0 -1 41
+ 8.043824 2 12 undefined 320 ------- 0 0.0 12.0 -1 41
- 8.043824 2 12 undefined 320 ------- 0 0.0 12.0 -1 41
r 8.046384 0 2 undefined 320 ------- 0 0.0 14.0 -1 42
+ 8.046384 2 14 undefined 320 ------- 0 0.0 14.0 -1 42
- 8.046384 2 14 undefined 320 ------- 0 0.0 14.0 -1 42
r 8.048704 2 6 undefined 320 ------- 0 0.0 6.0 -1 38
r 8.048944 0 2 undefined 320 ------- 0 0.0 16.0 -1 43
+ 8.048944 2 16 undefined 320 ------- 0 0.0 16.0 -1 43
- 8.048944 2 16 undefined 320 ------- 0 0.0 16.0 -1 43
r 8.051264 2 8 undefined 320 ------- 0 0.0 8.0 -1 39
r 8.053824 2 10 undefined 320 ------- 0 0.0 10.0 -1 40
r 8.056384 2 12 undefined 320 ------- 0 0.0 12.0 -1 41
r 8.058944 2 14 undefined 320 ------- 0 0.0 14.0 -1 42
r 8.061504 2 16 undefined 320 ------- 0 0.0 16.0 -1 43
+ 9 18 2 undefined 64 ------- 0 18.0 0.0 -1 44
- 9 18 2 undefined 64 ------- 0 18.0 0.0 -1 44
r 9.010512 18 2 undefined 64 ------- 0 18.0 0.0 -1 44
+ 9.010512 2 0 undefined 64 ------- 0 18.0 0.0 -1 44
- 9.010512 2 0 undefined 64 ------- 0 18.0 0.0 -1 44
r 9.021024 2 0 undefined 64 ------- 0 18.0 0.0 -1 44
+ 9.021024 0 2 undefined 384 ------- 0 0.0 2.0 -1 45
- 9.021024 0 2 undefined 384 ------- 0 0.0 2.0 -1 45
+ 9.021024 0 4 undefined 384 ------- 0 0.0 4.0 -1 46
- 9.021024 0 4 undefined 384 ------- 0 0.0 4.0 -1 46
+ 9.021024 0 2 undefined 384 ------- 0 0.0 6.0 -1 47
+ 9.021024 0 2 undefined 384 ------- 0 0.0 8.0 -1 48
+ 9.021024 0 2 undefined 384 ------- 0 0.0 10.0 -1 49
+ 9.021024 0 2 undefined 384 ------- 0 0.0 12.0 -1 50
+ 9.021024 0 2 undefined 384 ------- 0 0.0 14.0 -1 51
+ 9.021024 0 2 undefined 384 ------- 0 0.0 16.0 -1 52
+ 9.021024 0 2 undefined 384 ------- 0 0.0 18.0 -1 53
- 9.024096 0 2 undefined 384 ------- 0 0.0 6.0 -1 47
- 9.027168 0 2 undefined 384 ------- 0 0.0 8.0 -1 48
- 9.03024 0 2 undefined 384 ------- 0 0.0 10.0 -1 49
- 9.033312 0 2 undefined 384 ------- 0 0.0 12.0 -1 50
r 9.034096 0 2 undefined 384 ------- 0 0.0 2.0 -1 45
r 9.034096 0 4 undefined 384 ------- 0 0.0 4.0 -1 46
- 9.036384 0 2 undefined 384 ------- 0 0.0 14.0 -1 51
r 9.037168 0 2 undefined 384 ------- 0 0.0 6.0 -1 47
+ 9.037168 2 6 undefined 384 ------- 0 0.0 6.0 -1 47
- 9.037168 2 6 undefined 384 ------- 0 0.0 6.0 -1 47
- 9.039456 0 2 undefined 384 ------- 0 0.0 16.0 -1 52
r 9.04024 0 2 undefined 384 ------- 0 0.0 8.0 -1 48
+ 9.04024 2 8 undefined 384 ------- 0 0.0 8.0 -1 48
- 9.04024 2 8 undefined 384 ------- 0 0.0 8.0 -1 48
- 9.042528 0 2 undefined 384 ------- 0 0.0 18.0 -1 53
r 9.043312 0 2 undefined 384 ------- 0 0.0 10.0 -1 49
+ 9.043312 2 10 undefined 384 ------- 0 0.0 10.0 -1 49
- 9.043312 2 10 undefined 384 ------- 0 0.0 10.0 -1 49
r 9.046384 0 2 undefined 384 ------- 0 0.0 12.0 -1 50
+ 9.046384 2 12 undefined 384 ------- 0 0.0 12.0 -1 50
- 9.046384 2 12 undefined 384 ------- 0 0.0 12.0 -1 50
r 9.049456 0 2 undefined 384 ------- 0 0.0 14.0 -1 51
+ 9.049456 2 14 undefined 384 ------- 0 0.0 14.0 -1 51
- 9.049456 2 14 undefined 384 ------- 0 0.0 14.0 -1 51
r 9.05024 2 6 undefined 384 ------- 0 0.0 6.0 -1 47
r 9.052528 0 2 undefined 384 ------- 0 0.0 16.0 -1 52
+ 9.052528 2 16 undefined 384 ------- 0 0.0 16.0 -1 52
- 9.052528 2 16 undefined 384 ------- 0 0.0 16.0 -1 52
r 9.053312 2 8 undefined 384 ------- 0 0.0 8.0 -1 48
r 9.0556 0 2 undefined 384 ------- 0 0.0 18.0 -1 53
+ 9.0556 2 18 undefined 384 ------- 0 0.0 18.0 -1 53
- 9.0556 2 18 undefined 384 ------- 0 0.0 18.0 -1 53
r 9.056384 2 10 undefined 384 ------- 0 0.0 10.0 -1 49
r 9.059456 2 12 undefined 384 ------- 0 0.0 12.0 -1 50
r 9.062528 2 14 undefined 384 ------- 0 0.0 14.0 -1 51
r 9.0656 2 16 undefined 384 ------- 0 0.0 16.0 -1 52
r 9.068672 2 18 undefined 384 ------- 0 0.0 18.0 -1 53
+ 10 20 2 undefined 64 ------- 0 20.0 0.0 -1 54
- 10 20 2 undefined 64 ------- 0 20.0 0.0 -1 54
r 10.010512 20 2 undefined 64 ------- 0 20.0 0.0 -1 54
+ 10.010512 2 0 undefined 64 ------- 0 20.0 0.0 -1 54
- 10.010512 2 0 undefined 64 ------- 0 20.0 0.0 -1 54
r 10.021024 2 0 undefined 64 ------- 0 20.0 0.0 -1 54
+ 10.021024 0 2 undefined 384 ------- 0 0.0 2.0 -1 55
- 10.021024 0 2 undefined 384 ------- 0 0.0 2.0 -1 55
+ 10.021024 0 4 undefined 384 ------- 0 0.0 4.0 -1 56
- 10.021024 0 4 undefined 384 ------- 0 0.0 4.0 -1 56
+ 10.021024 0 2 undefined 384 ------- 0 0.0 6.0 -1 57
+ 10.021024 0 2 undefined 384 ------- 0 0.0 8.0 -1 58
+ 10.021024 0 2 undefined 384 ------- 0 0.0 10.0 -1 59
+ 10.021024 0 2 undefined 384 ------- 0 0.0 12.0 -1 60
+ 10.021024 0 2 undefined 384 ------- 0 0.0 14.0 -1 61
+ 10.021024 0 2 undefined 384 ------- 0 0.0 16.0 -1 62
+ 10.021024 0 2 undefined 384 ------- 0 0.0 18.0 -1 63
+ 10.021024 0 2 undefined 384 ------- 0 0.0 20.0 -1 64
- 10.024096 0 2 undefined 384 ------- 0 0.0 6.0 -1 57
- 10.027168 0 2 undefined 384 ------- 0 0.0 8.0 -1 58
- 10.03024 0 2 undefined 384 ------- 0 0.0 10.0 -1 59
- 10.033312 0 2 undefined 384 ------- 0 0.0 12.0 -1 60
r 10.034096 0 2 undefined 384 ------- 0 0.0 2.0 -1 55
r 10.034096 0 4 undefined 384 ------- 0 0.0 4.0 -1 56
- 10.036384 0 2 undefined 384 ------- 0 0.0 14.0 -1 61
r 10.037168 0 2 undefined 384 ------- 0 0.0 6.0 -1 57
+ 10.037168 2 6 undefined 384 ------- 0 0.0 6.0 -1 57
- 10.037168 2 6 undefined 384 ------- 0 0.0 6.0 -1 57
- 10.039456 0 2 undefined 384 ------- 0 0.0 16.0 -1 62
r 10.04024 0 2 undefined 384 ------- 0 0.0 8.0 -1 58
+ 10.04024 2 8 undefined 384 ------- 0 0.0 8.0 -1 58
- 10.04024 2 8 undefined 384 ------- 0 0.0 8.0 -1 58
- 10.042528 0 2 undefined 384 ------- 0 0.0 18.0 -1 63
r 10.043312 0 2 undefined 384 ------- 0 0.0 10.0 -1 59
+ 10.043312 2 10 undefined 384 ------- 0 0.0 10.0 -1 59
- 10.043312 2 10 undefined 384 ------- 0 0.0 10.0 -1 59
- 10.0456 0 2 undefined 384 ------- 0 0.0 20.0 -1 64
r 10.046384 0 2 undefined 384 ------- 0 0.0 12.0 -1 60
+ 10.046384 2 12 undefined 384 ------- 0 0.0 12.0 -1 60
- 10.046384 2 12 undefined 384 ------- 0 0.0 12.0 -1 60
r 10.049456 0 2 undefined 384 ------- 0 0.0 14.0 -1 61
+ 10.049456 2 14 undefined 384 ------- 0 0.0 14.0 -1 61
- 10.049456 2 14 undefined 384 ------- 0 0.0 14.0 -1 61
r 10.05024 2 6 undefined 384 ------- 0 0.0 6.0 -1 57
r 10.052528 0 2 undefined 384 ------- 0 0.0 16.0 -1 62
+ 10.052528 2 16 undefined 384 ------- 0 0.0 16.0 -1 62
- 10.052528 2 16 undefined 384 ------- 0 0.0 16.0 -1 62
r 10.053312 2 8 undefined 384 ------- 0 0.0 8.0 -1 58
r 10.0556 0 2 undefined 384 ------- 0 0.0 18.0 -1 63
+ 10.0556 2 18 undefined 384 ------- 0 0.0 18.0 -1 63
- 10.0556 2 18 undefined 384 ------- 0 0.0 18.0 -1 63
r 10.056384 2 10 undefined 384 ------- 0 0.0 10.0 -1 59
r 10.058672 0 2 undefined 384 ------- 0 0.0 20.0 -1 64
+ 10.058672 2 20 undefined 384 ------- 0 0.0 20.0 -1 64
- 10.058672 2 20 undefined 384 ------- 0 0.0 20.0 -1 64
r 10.059456 2 12 undefined 384 ------- 0 0.0 12.0 -1 60
r 10.062528 2 14 undefined 384 ------- 0 0.0 14.0 -1 61
r 10.0656 2 16 undefined 384 ------- 0 0.0 16.0 -1 62
r 10.068672 2 18 undefined 384 ------- 0 0.0 18.0 -1 63
r 10.071744 2 20 undefined 384 ------- 0 0.0 20.0 -1 64
+ 11 22 2 undefined 64 ------- 0 22.0 0.0 -1 65
- 11 22 2 undefined 64 ------- 0 22.0 0.0 -1 65
r 11.010512 22 2 undefined 64 ------- 0 22.0 0.0 -1 65
+ 11.010512 2 0 undefined 64 ------- 0 22.0 0.0 -1 65
- 11.010512 2 0 undefined 64 ------- 0 22.0 0.0 -1 65
r 11.021024 2 0 undefined 64 ------- 0 22.0 0.0 -1 65
+ 11.021024 0 2 undefined 448 ------- 0 0.0 2.0 -1 66
- 11.021024 0 2 undefined 448 ------- 0 0.0 2.0 -1 66
+ 11.021024 0 4 undefined 448 ------- 0 0.0 4.0 -1 67
- 11.021024 0 4 undefined 448 ------- 0 0.0 4.0 -1 67
+ 11.021024 0 2 undefined 448 ------- 0 0.0 6.0 -1 68
+ 11.021024 0 2 undefined 448 ------- 0 0.0 8.0 -1 69
+ 11.021024 0 2 undefined 448 ------- 0 0.0 10.0 -1 70
+ 11.021024 0 2 undefined 448 ------- 0 0.0 12.0 -1 71
+ 11.021024 0 2 undefined 448 ------- 0 0.0 14.0 -1 72
+ 11.021024 0 2 undefined 448 ------- 0 0.0 16.0 -1 73
+ 11.021024 0 2 undefined 448 ------- 0 0.0 18.0 -1 74
+ 11.021024 0 2 undefined 448 ------- 0 0.0 20.0 -1 75
+ 11.021024 0 2 undefined 448 ------- 0 0.0 22.0 -1 76
- 11.024608 0 2 undefined 448 ------- 0 0.0 6.0 -1 68
- 11.028192 0 2 undefined 448 ------- 0 0.0 8.0 -1 69
- 11.031776 0 2 undefined 448 ------- 0 0.0 10.0 -1 70
r 11.034608 0 2 undefined 448 ------- 0 0.0 2.0 -1 66
r 11.034608 0 4 undefined 448 ------- 0 0.0 4.0 -1 67
- 11.03536 0 2 undefined 448 ------- 0 0.0 12.0 -1 71
r 11.038192 0 2 undefined 448 ------- 0 0.0 6.0 -1 68
+ 11.038192 2 6 undefined 448 ------- 0 0.0 6.0 -1 68
- 11.038192 2 6 undefined 448 ------- 0 0.0 6.0 -1 68
- 11.038944 0 2 undefined 448 ------- 0 0.0 14.0 -1 72
r 11.041776 0 2 undefined 448 ------- 0 0.0 8.0 -1 69
+ 11.041776 2 8 undefined 448 ------- 0 0.0 8.0 -1 69
- 11.041776 2 8 undefined 448 ------- 0 0.0 8.0 -1 69
- 11.042528 0 2 undefined 448 ------- 0 0.0 16.0 -1 73
r 11.04536 0 2 undefined 448 ------- 0 0.0 10.0 -1 70
+ 11.04536 2 10 undefined 448 ------- 0 0.0 10.0 -1 70
- 11.04536 2 10 undefined 448 ------- 0 0.0 10.0 -1 70
- 11.046112 0 2 undefined 448 ------- 0 0.0 18.0 -1 74
r 11.048944 0 2 undefined 448 ------- 0 0.0 12.0 -1 71
+ 11.048944 2 12 undefined 448 ------- 0 0.0 12.0 -1 71
- 11.048944 2 12 undefined 448 ------- 0 0.0 12.0 -1 71
- 11.049696 0 2 undefined 448 ------- 0 0.0 20.0 -1 75
r 11.051776 2 6 undefined 448 ------- 0 0.0 6.0 -1 68
r 11.052528 0 2 undefined 448 ------- 0 0.0 14.0 -1 72
+ 11.052528 2 14 undefined 448 ------- 0 0.0 14.0 -1 72
- 11.052528 2 14 undefined 448 ------- 0 0.0 14.0 -1 72
- 11.05328 0 2 undefined 448 ------- 0 0.0 22.0 -1 76
r 11.05536 2 8 undefined 448 ------- 0 0.0 8.0 -1 69
r 11.056112 0 2 undefined 448 ------- 0 0.0 16.0 -1 73
+ 11.056112 2 16 undefined 448 ------- 0 0.0 16.0 -1 73
- 11.056112 2 16 undefined 448 ------- 0 0.0 16.0 -1 73
r 11.058944 2 10 undefined 448 ------- 0 0.0 10.0 -1 70
r 11.059696 0 2 undefined 448 ------- 0 0.0 18.0 -1 74
+ 11.059696 2 18 undefined 448 ------- 0 0.0 18.0 -1 74
- 11.059696 2 18 undefined 448 ------- 0 0.0 18.0 -1 74
r 11.062528 2 12 undefined 448 ------- 0 0.0 12.0 -1 71
r 11.06328 0 2 undefined 448 ------- 0 0.0 20.0 -1 75
+ 11.06328 2 20 undefined 448 ------- 0 0.0 20.0 -1 75
- 11.06328 2 20 undefined 448 ------- 0 0.0 20.0 -1 75
r 11.066112 2 14 undefined 448 ------- 0 0.0 14.0 -1 72
r 11.066864 0 2 undefined 448 ------- 0 0.0 22.0 -1 76
+ 11.066864 2 22 undefined 448 ------- 0 0.0 22.0 -1 76
- 11.066864 2 22 undefined 448 ------- 0 0.0 22.0 -1 76
r 11.069696 2 16 undefined 448 ------- 0 0.0 16.0 -1 73
r 11.07328 2 18 undefined 448 ------- 0 0.0 18.0 -1 74
r 11.076864 2 20 undefined 448 ------- 0 0.0 20.0 -1 75
r 11.080448 2 22 undefined 448 ------- 0 0.0 22.0 -1 76
+ 12 24 2 undefined 64 ------- 0 24.0 0.0 -1 77
- 12 24 2 undefined 64 ------- 0 24.0 0.0 -1 77
r 12.010512 24 2 undefined 64 ------- 0 24.0 0.0 -1 77
+ 12.010512 2 0 undefined 64 ------- 0 24.0 0.0 -1 77
- 12.010512 2 0 undefined 64 ------- 0 24.0 0.0 -1 77
r 12.021024 2 0 undefined 64 ------- 0 24.0 0.0 -1 77
+ 12.021024 0 2 undefined 448 ------- 0 0.0 2.0 -1 78
- 12.021024 0 2 undefined 448 ------- 0 0.0 2.0 -1 78
+ 12.021024 0 4 undefined 448 ------- 0 0.0 4.0 -1 79
- 12.021024 0 4 undefined 448 ------- 0 0.0 4.0 -1 79
+ 12.021024 0 2 undefined 448 ------- 0 0.0 6.0 -1 80
+ 12.021024 0 2 undefined 448 ------- 0 0.0 8.0 -1 81
+ 12.021024 0 2 undefined 448 ------- 0 0.0 10.0 -1 82
+ 12.021024 0 2 undefined 448 ------- 0 0.0 12.0 -1 83
+ 12.021024 0 2 undefined 448 ------- 0 0.0 14.0 -1 84
+ 12.021024 0 2 undefined 448 ------- 0 0.0 16.0 -1 85
+ 12.021024 0 2 undefined 448 ------- 0 0.0 18.0 -1 86
+ 12.021024 0 2 undefined 448 ------- 0 0.0 20.0 -1 87
+ 12.021024 0 2 undefined 448 ------- 0 0.0 22.0 -1 88
+ 12.021024 0 2 undefined 448 ------- 0 0.0 24.0 -1 89
- 12.024608 0 2 undefined 448 ------- 0 0.0 6.0 -1 80
- 12.028192 0 2 undefined 448 ------- 0 0.0 8.0 -1 81
- 12.031776 0 2 undefined 448 ------- 0 0.0 10.0 -1 82
r 12.034608 0 2 undefined 448 ------- 0 0.0 2.0 -1 78
r 12.034608 0 4 undefined 448 ------- 0 0.0 4.0 -1 79
- 12.03536 0 2 undefined 448 ------- 0 0.0 12.0 -1 83
r 12.038192 0 2 undefined 448 ------- 0 0.0 6.0 -1 80
+ 12.038192 2 6 undefined 448 ------- 0 0.0 6.0 -1 80
- 12.038192 2 6 undefined 448 ------- 0 0.0 6.0 -1 80
- 12.038944 0 2 undefined 448 ------- 0 0.0 14.0 -1 84
r 12.041776 0 2 undefined 448 ------- 0 0.0 8.0 -1 81
+ 12.041776 2 8 undefined 448 ------- 0 0.0 8.0 -1 81
- 12.041776 2 8 undefined 448 ------- 0 0.0 8.0 -1 81
- 12.042528 0 2 undefined 448 ------- 0 0.0 16.0 -1 85
r 12.04536 0 2 undefined 448 ------- 0 0.0 10.0 -1 82
+ 12.04536 2 10 undefined 448 ------- 0 0.0 10.0 -1 82
- 12.04536 2 10 undefined 448 ------- 0 0.0 10.0 -1 82
- 12.046112 0 2 undefined 448 ------- 0 0.0 18.0 -1 86
r 12.048944 0 2 undefined 448 ------- 0 0.0 12.0 -1 83
+ 12.048944 2 12 undefined 448 ------- 0 0.0 12.0 -1 83
- 12.048944 2 12 undefined 448 ------- 0 0.0 12.0 -1 83
- 12.049696 0 2 undefined 448 ------- 0 0.0 20.0 -1 87
r 12.051776 2 6 undefined 448 ------- 0 0.0 6.0 -1 80
r 12.052528 0 2 undefined 448 ------- 0 0.0 14.0 -1 84
+ 12.052528 2 14 undefined 448 ------- 0 0.0 14.0 -1 84
- 12.052528 2 14 undefined 448 ------- 0 0.0 14.0 -1 84
- 12.05328 0 2 undefined 448 ------- 0 0.0 22.0 -1 88
r 12.05536 2 8 undefined 448 ------- 0 0.0 8.0 -1 81
r 12.056112 0 2 undefined 448 ------- 0 0.0 16.0 -1 85
+ 12.056112 2 16 undefined 448 ------- 0 0.0 16.0 -1 85
- 12.056112 2 16 undefined 448 ------- 0 0.0 16.0 -1 85
- 12.056864 0 2 undefined 448 ------- 0 0.0 24.0 -1 89
r 12.058944 2 10 undefined 448 ------- 0 0.0 10.0 -1 82
r 12.059696 0 2 undefined 448 ------- 0 0.0 18.0 -1 86
+ 12.059696 2 18 undefined 448 ------- 0 0.0 18.0 -1 86
- 12.059696 2 18 undefined 448 ------- 0 0.0 18.0 -1 86
r 12.062528 2 12 undefined 448 ------- 0 0.0 12.0 -1 83
r 12.06328 0 2 undefined 448 ------- 0 0.0 20.0 -1 87
+ 12.06328 2 20 undefined 448 ------- 0 0.0 20.0 -1 87
- 12.06328 2 20 undefined 448 ------- 0 0.0 20.0 -1 87
r 12.066112 2 14 undefined 448 ------- 0 0.0 14.0 -1 84
r 12.066864 0 2 undefined 448 ------- 0 0.0 22.0 -1 88
+ 12.066864 2 22 undefined 448 ------- 0 0.0 22.0 -1 88
- 12.066864 2 22 undefined 448 ------- 0 0.0 22.0 -1 88
r 12.069696 2 16 undefined 448 ------- 0 0.0 16.0 -1 85
r 12.070448 0 2 undefined 448 ------- 0 0.0 24.0 -1 89
+ 12.070448 2 24 undefined 448 ------- 0 0.0 24.0 -1 89
- 12.070448 2 24 undefined 448 ------- 0 0.0 24.0 -1 89
r 12.07328 2 18 undefined 448 ------- 0 0.0 18.0 -1 86
r 12.076864 2 20 undefined 448 ------- 0 0.0 20.0 -1 87
r 12.080448 2 22 undefined 448 ------- 0 0.0 22.0 -1 88
r 12.084032 2 24 undefined 448 ------- 0 0.0 24.0 -1 89
+ 13 26 2 undefined 64 ------- 0 26.0 0.0 -1 90
- 13 26 2 undefined 64 ------- 0 26.0 0.0 -1 90
r 13.010512 26 2 undefined 64 ------- 0 26.0 0.0 -1 90
+ 13.010512 2 0 undefined 64 ------- 0 26.0 0.0 -1 90
- 13.010512 2 0 undefined 64 ------- 0 26.0 0.0 -1 90
r 13.021024 2 0 undefined 64 ------- 0 26.0 0.0 -1 90
+ 13.021024 0 2 undefined 512 ------- 0 0.0 2.0 -1 91
- 13.021024 0 2 undefined 512 ------- 0 0.0 2.0 -1 91
+ 13.021024 0 4 undefined 512 ------- 0 0.0 4.0 -1 92
- 13.021024 0 4 undefined 512 ------- 0 0.0 4.0 -1 92
+ 13.021024 0 2 undefined 512 ------- 0 0.0 6.0 -1 93
+ 13.021024 0 2 undefined 512 ------- 0 0.0 8.0 -1 94
+ 13.021024 0 2 undefined 512 ------- 0 0.0 10.0 -1 95
+ 13.021024 0 2 undefined 512 ------- 0 0.0 12.0 -1 96
+ 13.021024 0 2 undefined 512 ------- 0 0.0 14.0 -1 97
+ 13.021024 0 2 undefined 512 ------- 0 0.0 16.0 -1 98
+ 13.021024 0 2 undefined 512 ------- 0 0.0 18.0 -1 99
+ 13.021024 0 2 undefined 512 ------- 0 0.0 20.0 -1 100
+ 13.021024 0 2 undefined 512 ------- 0 0.0 22.0 -1 101
+ 13.021024 0 2 undefined 512 ------- 0 0.0 24.0 -1 102
+ 13.021024 0 2 undefined 512 ------- 0 0.0 26.0 -1 103
- 13.02512 0 2 undefined 512 ------- 0 0.0 6.0 -1 93
- 13.029216 0 2 undefined 512 ------- 0 0.0 8.0 -1 94
- 13.033312 0 2 undefined 512 ------- 0 0.0 10.0 -1 95
r 13.03512 0 2 undefined 512 ------- 0 0.0 2.0 -1 91
r 13.03512 0 4 undefined 512 ------- 0 0.0 4.0 -1 92
- 13.037408 0 2 undefined 512 ------- 0 0.0 12.0 -1 96
r 13.039216 0 2 undefined 512 ------- 0 0.0 6.0 -1 93
+ 13.039216 2 6 undefined 512 ------- 0 0.0 6.0 -1 93
- 13.039216 2 6 undefined 512 ------- 0 0.0 6.0 -1 93
- 13.041504 0 2 undefined 512 ------- 0 0.0 14.0 -1 97
r 13.043312 0 2 undefined 512 ------- 0 0.0 8.0 -1 94
+ 13.043312 2 8 undefined 512 ------- 0 0.0 8.0 -1 94
- 13.043312 2 8 undefined 512 ------- 0 0.0 8.0 -1 94
- 13.0456 0 2 undefined 512 ------- 0 0.0 16.0 -1 98
r 13.047408 0 2 undefined 512 ------- 0 0.0 10.0 -1 95
+ 13.047408 2 10 undefined 512 ------- 0 0.0 10.0 -1 95
- 13.047408 2 10 undefined 512 ------- 0 0.0 10.0 -1 95
- 13.049696 0 2 undefined 512 ------- 0 0.0 18.0 -1 99
r 13.051504 0 2 undefined 512 ------- 0 0.0 12.0 -1 96
+ 13.051504 2 12 undefined 512 ------- 0 0.0 12.0 -1 96
- 13.051504 2 12 undefined 512 ------- 0 0.0 12.0 -1 96
r 13.053312 2 6 undefined 512 ------- 0 0.0 6.0 -1 93
- 13.053792 0 2 undefined 512 ------- 0 0.0 20.0 -1 100
r 13.0556 0 2 undefined 512 ------- 0 0.0 14.0 -1 97
+ 13.0556 2 14 undefined 512 ------- 0 0.0 14.0 -1 97
- 13.0556 2 14 undefined 512 ------- 0 0.0 14.0 -1 97
r 13.057408 2 8 undefined 512 ------- 0 0.0 8.0 -1 94
- 13.057888 0 2 undefined 512 ------- 0 0.0 22.0 -1 101
r 13.059696 0 2 undefined 512 ------- 0 0.0 16.0 -1 98
+ 13.059696 2 16 undefined 512 ------- 0 0.0 16.0 -1 98
- 13.059696 2 16 undefined 512 ------- 0 0.0 16.0 -1 98
r 13.061504 2 10 undefined 512 ------- 0 0.0 10.0 -1 95
- 13.061984 0 2 undefined 512 ------- 0 0.0 24.0 -1 102
r 13.063792 0 2 undefined 512 ------- 0 0.0 18.0 -1 99
+ 13.063792 2 18 undefined 512 ------- 0 0.0 18.0 -1 99
- 13.063792 2 18 undefined 512 ------- 0 0.0 18.0 -1 99
r 13.0656 2 12 undefined 512 ------- 0 0.0 12.0 -1 96
- 13.06608 0 2 undefined 512 ------- 0 0.0 26.0 -1 103
r 13.067888 0 2 undefined 512 ------- 0 0.0 20.0 -1 100
+ 13.067888 2 20 undefined 512 ------- 0 0.0 20.0 -1 100
- 13.067888 2 20 undefined 512 ------- 0 0.0 20.0 -1 100
r 13.069696 2 14 undefined 512 ------- 0 0.0 14.0 -1 97
r 13.071984 0 2 undefined 512 ------- 0 0.0 22.0 -1 101
+ 13.071984 2 22 undefined 512 ------- 0 0.0 22.0 -1 101
- 13.071984 2 22 undefined 512 ------- 0 0.0 22.0 -1 101
r 13.073792 2 16 undefined 512 ------- 0 0.0 16.0 -1 98
r 13.07608 0 2 undefined 512 ------- 0 0.0 24.0 -1 102
+ 13.07608 2 24 undefined 512 ------- 0 0.0 24.0 -1 102
- 13.07608 2 24 undefined 512 ------- 0 0.0 24.0 -1 102
r 13.077888 2 18 undefined 512 ------- 0 0.0 18.0 -1 99
r 13.080176 0 2 undefined 512 ------- 0 0.0 26.0 -1 103
+ 13.080176 2 26 undefined 512 ------- 0 0.0 26.0 -1 103
- 13.080176 2 26 undefined 512 ------- 0 0.0 26.0 -1 103
r 13.081984 2 20 undefined 512 ------- 0 0.0 20.0 -1 100
r 13.08608 2 22 undefined 512 ------- 0 0.0 22.0 -1 101
r 13.090176 2 24 undefined 512 ------- 0 0.0 24.0 -1 102
r 13.094272 2 26 undefined 512 ------- 0 0.0 26.0 -1 103
+ 14 28 2 undefined 64 ------- 0 28.0 0.0 -1 104
- 14 28 2 undefined 64 ------- 0 28.0 0.0 -1 104
r 14.010512 28 2 undefined 64 ------- 0 28.0 0.0 -1 104
+ 14.010512 2 0 undefined 64 ------- 0 28.0 0.0 -1 104
- 14.010512 2 0 undefined 64 ------- 0 28.0 0.0 -1 104
r 14.021024 2 0 undefined 64 ------- 0 28.0 0.0 -1 104
+ 14.021024 0 2 undefined 512 ------- 0 0.0 2.0 -1 105
- 14.021024 0 2 undefined 512 ------- 0 0.0 2.0 -1 105
+ 14.021024 0 4 undefined 512 ------- 0 0.0 4.0 -1 106
- 14.021024 0 4 undefined 512 ------- 0 0.0 4.0 -1 106
+ 14.021024 0 2 undefined 512 ------- 0 0.0 6.0 -1 107
+ 14.021024 0 2 undefined 512 ------- 0 0.0 8.0 -1 108
+ 14.021024 0 2 undefined 512 ------- 0 0.0 10.0 -1 109
+ 14.021024 0 2 undefined 512 ------- 0 0.0 12.0 -1 110