+ 0.5 0 2 gka 64 ------- 0 0.0 18.0 -1 0
- 0.5 0 2 gka 64 ------- 0 0.0 18.0 -1 0
+ 0.5 1 3 gka 64 ------- 0 1.0 19.0 -1 1
- 0.5 1 3 gka 64 ------- 0 1.0 19.0 -1 1
r 0.510512 0 2 gka 64 ------- 0 0.0 18.0 -1 0
+ 0.510512 2 4 gka 64 ------- 0 0.0 18.0 -1 0
- 0.510512 2 4 gka 64 ------- 0 0.0 18.0 -1 0
r 0.510512 1 3 gka 64 ------- 0 1.0 19.0 -1 1
+ 0.510512 3 5 gka 64 ------- 0 1.0 19.0 -1 1
- 0.510512 3 5 gka 64 ------- 0 1.0 19.0 -1 1
r 0.521024 2 4 gka 64 ------- 0 0.0 18.0 -1 0
+ 0.521024 4 6 gka 64 ------- 0 0.0 18.0 -1 0
- 0.521024 4 6 gka 64 ------- 0 0.0 18.0 -1 0
r 0.521024 3 5 gka 64 ------- 0 1.0 19.0 -1 1
+ 0.521024 5 7 gka 64 ------- 0 1.0 19.0 -1 1
- 0.521024 5 7 gka 64 ------- 0 1.0 19.0 -1 1
r 0.531536 4 6 gka 64 ------- 0 0.0 18.0 -1 0
+ 0.531536 6 8 gka 64 ------- 0 0.0 18.0 -1 0
- 0.531536 6 8 gka 64 ------- 0 0.0 18.0 -1 0
r 0.531536 5 7 gka 64 ------- 0 1.0 19.0 -1 1
+ 0.531536 7 9 gka 64 ------- 0 1.0 19.0 -1 1
- 0.531536 7 9 gka 64 ------- 0 1.0 19.0 -1 1
r 0.542048 6 8 gka 64 ------- 0 0.0 18.0 -1 0
+ 0.542048 8 10 gka 64 ------- 0 0.0 18.0 -1 0
- 0.542048 8 10 gka 64 ------- 0 0.0 18.0 -1 0
r 0.542048 7 9 gka 64 ------- 0 1.0 19.0 -1 1
+ 0.542048 9 11 gka 64 ------- 0 1.0 19.0 -1 1
- 0.542048 9 11 gka 64 ------- 0 1.0 19.0 -1 1
r 0.55256 8 10 gka 64 ------- 0 0.0 18.0 -1 0
+ 0.55256 10 12 gka 64 ------- 0 0.0 18.0 -1 0
- 0.55256 10 12 gka 64 ------- 0 0.0 18.0 -1 0
r 0.55256 9 11 gka 64 ------- 0 1.0 19.0 -1 1
+ 0.55256 11 13 gka 64 ------- 0 1.0 19.0 -1 1
- 0.55256 11 13 gka 64 ------- 0 1.0 19.0 -1 1
r 0.563072 10 12 gka 64 ------- 0 0.0 18.0 -1 0
+ 0.563072 12 14 gka 64 ------- 0 0.0 18.0 -1 0
- 0.563072 12 14 gka 64 ------- 0 0.0 18.0 -1 0
r 0.563072 11 13 gka 64 ------- 0 1.0 19.0 -1 1
+ 0.563072 13 15 gka 64 ------- 0 1.0 19.0 -1 1
- 0.563072 13 15 gka 64 ------- 0 1.0 19.0 -1 1
r 0.573584 12 14 gka 64 ------- 0 0.0 18.0 -1 0
+ 0.573584 14 16 gka 64 ------- 0 0.0 18.0 -1 0
- 0.573584 14 16 gka 64 ------- 0 0.0 18.0 -1 0
r 0.573584 13 15 gka 64 ------- 0 1.0 19.0 -1 1
+ 0.573584 15 17 gka 64 ------- 0 1.0 19.0 -1 1
- 0.573584 15 17 gka 64 ------- 0 1.0 19.0 -1 1
r 0.584096 14 16 gka 64 ------- 0 0.0 18.0 -1 0
+ 0.584096 16 18 gka 64 ------- 0 0.0 18.0 -1 0
- 0.584096 16 18 gka 64 ------- 0 0.0 18.0 -1 0
r 0.584096 15 17 gka 64 ------- 0 1.0 19.0 -1 1
+ 0.584096 17 19 gka 64 ------- 0 1.0 19.0 -1 1
- 0.584096 17 19 gka 64 ------- 0 1.0 19.0 -1 1
r 0.594608 16 18 gka 64 ------- 0 0.0 18.0 -1 0
+ 0.594608 18 16 gka 256 ------- 0 18.0 0.0 -1 2
- 0.594608 18 16 gka 256 ------- 0 18.0 0.0 -1 2
r 0.594608 17 19 gka 64 ------- 0 1.0 19.0 -1 1
+ 0.594608 19 17 gka 256 ------- 0 19.0 1.0 -1 3
- 0.594608 19 17 gka 256 ------- 0 19.0 1.0 -1 3
r 0.606656 18 16 gka 256 ------- 0 18.0 0.0 -1 2
+ 0.606656 16 14 gka 256 ------- 0 18.0 0.0 -1 2
- 0.606656 16 14 gka 256 ------- 0 18.0 0.0 -1 2
r 0.606656 19 17 gka 256 ------- 0 19.0 1.0 -1 3
+ 0.606656 17 15 gka 256 ------- 0 19.0 1.0 -1 3
- 0.606656 17 15 gka 256 ------- 0 19.0 1.0 -1 3
r 0.618704 16 14 gka 256 ------- 0 18.0 0.0 -1 2
+ 0.618704 14 12 gka 256 ------- 0 18.0 0.0 -1 2
- 0.618704 14 12 gka 256 ------- 0 18.0 0.0 -1 2
r 0.618704 17 15 gka 256 ------- 0 19.0 1.0 -1 3
+ 0.618704 15 13 gka 256 ------- 0 19.0 1.0 -1 3
- 0.618704 15 13 gka 256 ------- 0 19.0 1.0 -1 3
r 0.630752 14 12 gka 256 ------- 0 18.0 0.0 -1 2
+ 0.630752 12 10 gka 256 ------- 0 18.0 0.0 -1 2
- 0.630752 12 10 gka 256 ------- 0 18.0 0.0 -1 2
r 0.630752 15 13 gka 256 ------- 0 19.0 1.0 -1 3
+ 0.630752 13 11 gka 256 ------- 0 19.0 1.0 -1 3
- 0.630752 13 11 gka 256 ------- 0 19.0 1.0 -1 3
r 0.6428 12 10 gka 256 ------- 0 18.0 0.0 -1 2
+ 0.6428 10 8 gka 256 ------- 0 18.0 0.0 -1 2
- 0.6428 10 8 gka 256 ------- 0 18.0 0.0 -1 2
r 0.6428 13 11 gka 256 ------- 0 19.0 1.0 -1 3
+ 0.6428 11 9 gka 256 ------- 0 19.0 1.0 -1 3
- 0.6428 11 9 gka 256 ------- 0 19.0 1.0 -1 3
r 0.654848 10 8 gka 256 ------- 0 18.0 0.0 -1 2
+ 0.654848 8 6 gka 256 ------- 0 18.0 0.0 -1 2
- 0.654848 8 6 gka 256 ------- 0 18.0 0.0 -1 2
r 0.654848 11 9 gka 256 ------- 0 19.0 1.0 -1 3
+ 0.654848 9 7 gka 256 ------- 0 19.0 1.0 -1 3
- 0.654848 9 7 gka 256 ------- 0 19.0 1.0 -1 3
r 0.666896 8 6 gka 256 ------- 0 18.0 0.0 -1 2
+ 0.666896 6 4 gka 256 ------- 0 18.0 0.0 -1 2
- 0.666896 6 4 gka 256 ------- 0 18.0 0.0 -1 2
r 0.666896 9 7 gka 256 ------- 0 19.0 1.0 -1 3
+ 0.666896 7 5 gka 256 ------- 0 19.0 1.0 -1 3
- 0.666896 7 5 gka 256 ------- 0 19.0 1.0 -1 3
r 0.678944 6 4 gka 256 ------- 0 18.0 0.0 -1 2
+ 0.678944 4 2 gka 256 ------- 0 18.0 0.0 -1 2
- 0.678944 4 2 gka 256 ------- 0 18.0 0.0 -1 2
r 0.678944 7 5 gka 256 ------- 0 19.0 1.0 -1 3
+ 0.678944 5 3 gka 256 ------- 0 19.0 1.0 -1 3
- 0.678944 5 3 gka 256 ------- 0 19.0 1.0 -1 3
r 0.690992 4 2 gka 256 ------- 0 18.0 0.0 -1 2
+ 0.690992 2 0 gka 256 ------- 0 18.0 0.0 -1 2
- 0.690992 2 0 gka 256 ------- 0 18.0 0.0 -1 2
r 0.690992 5 3 gka 256 ------- 0 19.0 1.0 -1 3
+ 0.690992 3 1 gka 256 ------- 0 19.0 1.0 -1 3
- 0.690992 3 1 gka 256 ------- 0 19.0 1.0 -1 3
r 0.70304 2 0 gka 256 ------- 0 18.0 0.0 -1 2
r 0.70304 3 1 gka 256 ------- 0 19.0 1.0 -1 3
+ 1 2 4 gka 64 ------- 0 2.0 18.0 -1 4
- 1 2 4 gka 64 ------- 0 2.0 18.0 -1 4
+ 1 3 5 gka 64 ------- 0 3.0 19.0 -1 5
- 1 3 5 gka 64 ------- 0 3.0 19.0 -1 5
r 1.010512 2 4 gka 64 ------- 0 2.0 18.0 -1 4
+ 1.010512 4 6 gka 64 ------- 0 2.0 18.0 -1 4
- 1.010512 4 6 gka 64 ------- 0 2.0 18.0 -1 4
r 1.010512 3 5 gka 64 ------- 0 3.0 19.0 -1 5
+ 1.010512 5 7 gka 64 ------- 0 3.0 19.0 -1 5
- 1.010512 5 7 gka 64 ------- 0 3.0 19.0 -1 5
r 1.021024 4 6 gka 64 ------- 0 2.0 18.0 -1 4
+ 1.021024 6 8 gka 64 ------- 0 2.0 18.0 -1 4
- 1.021024 6 8 gka 64 ------- 0 2.0 18.0 -1 4
r 1.021024 5 7 gka 64 ------- 0 3.0 19.0 -1 5
+ 1.021024 7 9 gka 64 ------- 0 3.0 19.0 -1 5
- 1.021024 7 9 gka 64 ------- 0 3.0 19.0 -1 5
r 1.031536 6 8 gka 64 ------- 0 2.0 18.0 -1 4
+ 1.031536 8 10 gka 64 ------- 0 2.0 18.0 -1 4
- 1.031536 8 10 gka 64 ------- 0 2.0 18.0 -1 4
r 1.031536 7 9 gka 64 ------- 0 3.0 19.0 -1 5
+ 1.031536 9 11 gka 64 ------- 0 3.0 19.0 -1 5
- 1.031536 9 11 gka 64 ------- 0 3.0 19.0 -1 5
r 1.042048 8 10 gka 64 ------- 0 2.0 18.0 -1 4
+ 1.042048 10 12 gka 64 ------- 0 2.0 18.0 -1 4
- 1.042048 10 12 gka 64 ------- 0 2.0 18.0 -1 4
r 1.042048 9 11 gka 64 ------- 0 3.0 19.0 -1 5
+ 1.042048 11 13 gka 64 ------- 0 3.0 19.0 -1 5
- 1.042048 11 13 gka 64 ------- 0 3.0 19.0 -1 5
r 1.05256 10 12 gka 64 ------- 0 2.0 18.0 -1 4
+ 1.05256 12 14 gka 64 ------- 0 2.0 18.0 -1 4
- 1.05256 12 14 gka 64 ------- 0 2.0 18.0 -1 4
r 1.05256 11 13 gka 64 ------- 0 3.0 19.0 -1 5
+ 1.05256 13 15 gka 64 ------- 0 3.0 19.0 -1 5
- 1.05256 13 15 gka 64 ------- 0 3.0 19.0 -1 5
r 1.063072 12 14 gka 64 ------- 0 2.0 18.0 -1 4
+ 1.063072 14 16 gka 64 ------- 0 2.0 18.0 -1 4
- 1.063072 14 16 gka 64 ------- 0 2.0 18.0 -1 4
r 1.063072 13 15 gka 64 ------- 0 3.0 19.0 -1 5
+ 1.063072 15 17 gka 64 ------- 0 3.0 19.0 -1 5
- 1.063072 15 17 gka 64 ------- 0 3.0 19.0 -1 5
r 1.073584 14 16 gka 64 ------- 0 2.0 18.0 -1 4
+ 1.073584 16 18 gka 64 ------- 0 2.0 18.0 -1 4
- 1.073584 16 18 gka 64 ------- 0 2.0 18.0 -1 4
r 1.073584 15 17 gka 64 ------- 0 3.0 19.0 -1 5
+ 1.073584 17 19 gka 64 ------- 0 3.0 19.0 -1 5
- 1.073584 17 19 gka 64 ------- 0 3.0 19.0 -1 5
r 1.084096 16 18 gka 64 ------- 0 2.0 18.0 -1 4
+ 1.084096 18 16 gka 384 ------- 0 18.0 0.0 -1 6
- 1.084096 18 16 gka 384 ------- 0 18.0 0.0 -1 6
+ 1.084096 18 16 gka 384 ------- 0 18.0 2.0 -1 7
r 1.084096 17 19 gka 64 ------- 0 3.0 19.0 -1 5
+ 1.084096 19 17 gka 384 ------- 0 19.0 1.0 -1 8
- 1.084096 19 17 gka 384 ------- 0 19.0 1.0 -1 8
+ 1.084096 19 17 gka 384 ------- 0 19.0 3.0 -1 9
- 1.087168 18 16 gka 384 ------- 0 18.0 2.0 -1 7
- 1.087168 19 17 gka 384 ------- 0 19.0 3.0 -1 9
r 1.097168 18 16 gka 384 ------- 0 18.0 0.0 -1 6
+ 1.097168 16 14 gka 384 ------- 0 18.0 0.0 -1 6
- 1.097168 16 14 gka 384 ------- 0 18.0 0.0 -1 6
r 1.097168 19 17 gka 384 ------- 0 19.0 1.0 -1 8
+ 1.097168 17 15 gka 384 ------- 0 19.0 1.0 -1 8
- 1.097168 17 15 gka 384 ------- 0 19.0 1.0 -1 8
r 1.10024 18 16 gka 384 ------- 0 18.0 2.0 -1 7
+ 1.10024 16 14 gka 384 ------- 0 18.0 2.0 -1 7
r 1.10024 19 17 gka 384 ------- 0 19.0 3.0 -1 9
+ 1.10024 17 15 gka 384 ------- 0 19.0 3.0 -1 9
- 1.10024 16 14 gka 384 ------- 0 18.0 2.0 -1 7
- 1.10024 17 15 gka 384 ------- 0 19.0 3.0 -1 9
r 1.11024 16 14 gka 384 ------- 0 18.0 0.0 -1 6
+ 1.11024 14 12 gka 384 ------- 0 18.0 0.0 -1 6
- 1.11024 14 12 gka 384 ------- 0 18.0 0.0 -1 6
r 1.11024 17 15 gka 384 ------- 0 19.0 1.0 -1 8
+ 1.11024 15 13 gka 384 ------- 0 19.0 1.0 -1 8
- 1.11024 15 13 gka 384 ------- 0 19.0 1.0 -1 8
r 1.113312 16 14 gka 384 ------- 0 18.0 2.0 -1 7
+ 1.113312 14 12 gka 384 ------- 0 18.0 2.0 -1 7
r 1.113312 17 15 gka 384 ------- 0 19.0 3.0 -1 9
+ 1.113312 15 13 gka 384 ------- 0 19.0 3.0 -1 9
- 1.113312 14 12 gka 384 ------- 0 18.0 2.0 -1 7
- 1.113312 15 13 gka 384 ------- 0 19.0 3.0 -1 9
r 1.123312 14 12 gka 384 ------- 0 18.0 0.0 -1 6
+ 1.123312 12 10 gka 384 ------- 0 18.0 0.0 -1 6
- 1.123312 12 10 gka 384 ------- 0 18.0 0.0 -1 6
r 1.123312 15 13 gka 384 ------- 0 19.0 1.0 -1 8
+ 1.123312 13 11 gka 384 ------- 0 19.0 1.0 -1 8
- 1.123312 13 11 gka 384 ------- 0 19.0 1.0 -1 8
r 1.126384 14 12 gka 384 ------- 0 18.0 2.0 -1 7
+ 1.126384 12 10 gka 384 ------- 0 18.0 2.0 -1 7
r 1.126384 15 13 gka 384 ------- 0 19.0 3.0 -1 9
+ 1.126384 13 11 gka 384 ------- 0 19.0 3.0 -1 9
- 1.126384 12 10 gka 384 ------- 0 18.0 2.0 -1 7
- 1.126384 13 11 gka 384 ------- 0 19.0 3.0 -1 9
r 1.136384 12 10 gka 384 ------- 0 18.0 0.0 -1 6
+ 1.136384 10 8 gka 384 ------- 0 18.0 0.0 -1 6
- 1.136384 10 8 gka 384 ------- 0 18.0 0.0 -1 6
r 1.136384 13 11 gka 384 ------- 0 19.0 1.0 -1 8
+ 1.136384 11 9 gka 384 ------- 0 19.0 1.0 -1 8
- 1.136384 11 9 gka 384 ------- 0 19.0 1.0 -1 8
r 1.139456 12 10 gka 384 ------- 0 18.0 2.0 -1 7
+ 1.139456 10 8 gka 384 ------- 0 18.0 2.0 -1 7
r 1.139456 13 11 gka 384 ------- 0 19.0 3.0 -1 9
+ 1.139456 11 9 gka 384 ------- 0 19.0 3.0 -1 9
- 1.139456 10 8 gka 384 ------- 0 18.0 2.0 -1 7
- 1.139456 11 9 gka 384 ------- 0 19.0 3.0 -1 9
r 1.149456 10 8 gka 384 ------- 0 18.0 0.0 -1 6
+ 1.149456 8 6 gka 384 ------- 0 18.0 0.0 -1 6
- 1.149456 8 6 gka 384 ------- 0 18.0 0.0 -1 6
r 1.149456 11 9 gka 384 ------- 0 19.0 1.0 -1 8
+ 1.149456 9 7 gka 384 ------- 0 19.0 1.0 -1 8
- 1.149456 9 7 gka 384 ------- 0 19.0 1.0 -1 8
r 1.152528 10 8 gka 384 ------- 0 18.0 2.0 -1 7
+ 1.152528 8 6 gka 384 ------- 0 18.0 2.0 -1 7
r 1.152528 11 9 gka 384 ------- 0 19.0 3.0 -1 9
+ 1.152528 9 7 gka 384 ------- 0 19.0 3.0 -1 9
- 1.152528 8 6 gka 384 ------- 0 18.0 2.0 -1 7
- 1.152528 9 7 gka 384 ------- 0 19.0 3.0 -1 9
r 1.162528 8 6 gka 384 ------- 0 18.0 0.0 -1 6
+ 1.162528 6 4 gka 384 ------- 0 18.0 0.0 -1 6
- 1.162528 6 4 gka 384 ------- 0 18.0 0.0 -1 6
r 1.162528 9 7 gka 384 ------- 0 19.0 1.0 -1 8
+ 1.162528 7 5 gka 384 ------- 0 19.0 1.0 -1 8
- 1.162528 7 5 gka 384 ------- 0 19.0 1.0 -1 8
r 1.1656 8 6 gka 384 ------- 0 18.0 2.0 -1 7
+ 1.1656 6 4 gka 384 ------- 0 18.0 2.0 -1 7
r 1.1656 9 7 gka 384 ------- 0 19.0 3.0 -1 9
+ 1.1656 7 5 gka 384 ------- 0 19.0 3.0 -1 9
- 1.1656 6 4 gka 384 ------- 0 18.0 2.0 -1 7
- 1.1656 7 5 gka 384 ------- 0 19.0 3.0 -1 9
r 1.1756 6 4 gka 384 ------- 0 18.0 0.0 -1 6
+ 1.1756 4 2 gka 384 ------- 0 18.0 0.0 -1 6
- 1.1756 4 2 gka 384 ------- 0 18.0 0.0 -1 6
r 1.1756 7 5 gka 384 ------- 0 19.0 1.0 -1 8
+ 1.1756 5 3 gka 384 ------- 0 19.0 1.0 -1 8
- 1.1756 5 3 gka 384 ------- 0 19.0 1.0 -1 8
r 1.178672 6 4 gka 384 ------- 0 18.0 2.0 -1 7
+ 1.178672 4 2 gka 384 ------- 0 18.0 2.0 -1 7
r 1.178672 7 5 gka 384 ------- 0 19.0 3.0 -1 9
+ 1.178672 5 3 gka 384 ------- 0 19.0 3.0 -1 9
- 1.178672 4 2 gka 384 ------- 0 18.0 2.0 -1 7
- 1.178672 5 3 gka 384 ------- 0 19.0 3.0 -1 9
r 1.188672 4 2 gka 384 ------- 0 18.0 0.0 -1 6
+ 1.188672 2 0 gka 384 ------- 0 18.0 0.0 -1 6
- 1.188672 2 0 gka 384 ------- 0 18.0 0.0 -1 6
r 1.188672 5 3 gka 384 ------- 0 19.0 1.0 -1 8
+ 1.188672 3 1 gka 384 ------- 0 19.0 1.0 -1 8
- 1.188672 3 1 gka 384 ------- 0 19.0 1.0 -1 8
r 1.191744 4 2 gka 384 ------- 0 18.0 2.0 -1 7
r 1.191744 5 3 gka 384 ------- 0 19.0 3.0 -1 9
r 1.201744 2 0 gka 384 ------- 0 18.0 0.0 -1 6
r 1.201744 3 1 gka 384 ------- 0 19.0 1.0 -1 8
+ 1.5 4 6 gka 64 ------- 0 4.0 18.0 -1 10
- 1.5 4 6 gka 64 ------- 0 4.0 18.0 -1 10
+ 1.5 5 7 gka 64 ------- 0 5.0 19.0 -1 11
- 1.5 5 7 gka 64 ------- 0 5.0 19.0 -1 11
r 1.510512 4 6 gka 64 ------- 0 4.0 18.0 -1 10
+ 1.510512 6 8 gka 64 ------- 0 4.0 18.0 -1 10
- 1.510512 6 8 gka 64 ------- 0 4.0 18.0 -1 10
r 1.510512 5 7 gka 64 ------- 0 5.0 19.0 -1 11
+ 1.510512 7 9 gka 64 ------- 0 5.0 19.0 -1 11
- 1.510512 7 9 gka 64 ------- 0 5.0 19.0 -1 11
r 1.521024 6 8 gka 64 ------- 0 4.0 18.0 -1 10
+ 1.521024 8 10 gka 64 ------- 0 4.0 18.0 -1 10
- 1.521024 8 10 gka 64 ------- 0 4.0 18.0 -1 10
r 1.521024 7 9 gka 64 ------- 0 5.0 19.0 -1 11
+ 1.521024 9 11 gka 64 ------- 0 5.0 19.0 -1 11
- 1.521024 9 11 gka 64 ------- 0 5.0 19.0 -1 11
r 1.531536 8 10 gka 64 ------- 0 4.0 18.0 -1 10
+ 1.531536 10 12 gka 64 ------- 0 4.0 18.0 -1 10
- 1.531536 10 12 gka 64 ------- 0 4.0 18.0 -1 10
r 1.531536 9 11 gka 64 ------- 0 5.0 19.0 -1 11
+ 1.531536 11 13 gka 64 ------- 0 5.0 19.0 -1 11
- 1.531536 11 13 gka 64 ------- 0 5.0 19.0 -1 11
r 1.542048 10 12 gka 64 ------- 0 4.0 18.0 -1 10
+ 1.542048 12 14 gka 64 ------- 0 4.0 18.0 -1 10
- 1.542048 12 14 gka 64 ------- 0 4.0 18.0 -1 10
r 1.542048 11 13 gka 64 ------- 0 5.0 19.0 -1 11
+ 1.542048 13 15 gka 64 ------- 0 5.0 19.0 -1 11
- 1.542048 13 15 gka 64 ------- 0 5.0 19.0 -1 11
r 1.55256 12 14 gka 64 ------- 0 4.0 18.0 -1 10
+ 1.55256 14 16 gka 64 ------- 0 4.0 18.0 -1 10
- 1.55256 14 16 gka 64 ------- 0 4.0 18.0 -1 10
r 1.55256 13 15 gka 64 ------- 0 5.0 19.0 -1 11
+ 1.55256 15 17 gka 64 ------- 0 5.0 19.0 -1 11
- 1.55256 15 17 gka 64 ------- 0 5.0 19.0 -1 11
r 1.563072 14 16 gka 64 ------- 0 4.0 18.0 -1 10
+ 1.563072 16 18 gka 64 ------- 0 4.0 18.0 -1 10
- 1.563072 16 18 gka 64 ------- 0 4.0 18.0 -1 10
r 1.563072 15 17 gka 64 ------- 0 5.0 19.0 -1 11
+ 1.563072 17 19 gka 64 ------- 0 5.0 19.0 -1 11
- 1.563072 17 19 gka 64 ------- 0 5.0 19.0 -1 11
r 1.573584 16 18 gka 64 ------- 0 4.0 18.0 -1 10
+ 1.573584 18 16 gka 64 ------- 0 18.0 0.0 -1 12
- 1.573584 18 16 gka 64 ------- 0 18.0 0.0 -1 12
+ 1.573584 18 16 gka 64 ------- 0 18.0 2.0 -1 13
r 1.573584 17 19 gka 64 ------- 0 5.0 19.0 -1 11
+ 1.573584 19 17 gka 64 ------- 0 19.0 1.0 -1 14
- 1.573584 19 17 gka 64 ------- 0 19.0 1.0 -1 14
+ 1.573584 19 17 gka 64 ------- 0 19.0 3.0 -1 15
- 1.574096 18 16 gka 64 ------- 0 18.0 2.0 -1 13
- 1.574096 19 17 gka 64 ------- 0 19.0 3.0 -1 15
r 1.584096 18 16 gka 64 ------- 0 18.0 0.0 -1 12
+ 1.584096 16 14 gka 64 ------- 0 18.0 0.0 -1 12
- 1.584096 16 14 gka 64 ------- 0 18.0 0.0 -1 12
r 1.584096 19 17 gka 64 ------- 0 19.0 1.0 -1 14
+ 1.584096 17 15 gka 64 ------- 0 19.0 1.0 -1 14
- 1.584096 17 15 gka 64 ------- 0 19.0 1.0 -1 14
r 1.584608 18 16 gka 64 ------- 0 18.0 2.0 -1 13
+ 1.584608 16 14 gka 64 ------- 0 18.0 2.0 -1 13
r 1.584608 19 17 gka 64 ------- 0 19.0 3.0 -1 15
+ 1.584608 17 15 gka 64 ------- 0 19.0 3.0 -1 15
- 1.584608 16 14 gka 64 ------- 0 18.0 2.0 -1 13
- 1.584608 17 15 gka 64 ------- 0 19.0 3.0 -1 15
r 1.594608 16 14 gka 64 ------- 0 18.0 0.0 -1 12
+ 1.594608 14 12 gka 64 ------- 0 18.0 0.0 -1 12
- 1.594608 14 12 gka 64 ------- 0 18.0 0.0 -1 12
r 1.594608 17 15 gka 64 ------- 0 19.0 1.0 -1 14
+ 1.594608 15 13 gka 64 ------- 0 19.0 1.0 -1 14
- 1.594608 15 13 gka 64 ------- 0 19.0 1.0 -1 14
r 1.59512 16 14 gka 64 ------- 0 18.0 2.0 -1 13
+ 1.59512 14 12 gka 64 ------- 0 18.0 2.0 -1 13
r 1.59512 17 15 gka 64 ------- 0 19.0 3.0 -1 15
+ 1.59512 15 13 gka 64 ------- 0 19.0 3.0 -1 15
- 1.59512 14 12 gka 64 ------- 0 18.0 2.0 -1 13
- 1.59512 15 13 gka 64 ------- 0 19.0 3.0 -1 15
r 1.60512 14 12 gka 64 ------- 0 18.0 0.0 -1 12
+ 1.60512 12 10 gka 64 ------- 0 18.0 0.0 -1 12
- 1.60512 12 10 gka 64 ------- 0 18.0 0.0 -1 12
r 1.60512 15 13 gka 64 ------- 0 19.0 1.0 -1 14
+ 1.60512 13 11 gka 64 ------- 0 19.0 1.0 -1 14
- 1.60512 13 11 gka 64 ------- 0 19.0 1.0 -1 14
r 1.605632 14 12 gka 64 ------- 0 18.0 2.0 -1 13
+ 1.605632 12 10 gka 64 ------- 0 18.0 2.0 -1 13
r 1.605632 15 13 gka 64 ------- 0 19.0 3.0 -1 15
+ 1.605632 13 11 gka 64 ------- 0 19.0 3.0 -1 15
- 1.605632 12 10 gka 64 ------- 0 18.0 2.0 -1 13
- 1.605632 13 11 gka 64 ------- 0 19.0 3.0 -1 15
r 1.615632 12 10 gka 64 ------- 0 18.0 0.0 -1 12
+ 1.615632 10 8 gka 64 ------- 0 18.0 0.0 -1 12
- 1.615632 10 8 gka 64 ------- 0 18.0 0.0 -1 12
r 1.615632 13 11 gka 64 ------- 0 19.0 1.0 -1 14
+ 1.615632 11 9 gka 64 ------- 0 19.0 1.0 -1 14
- 1.615632 11 9 gka 64 ------- 0 19.0 1.0 -1 14
r 1.616144 12 10 gka 64 ------- 0 18.0 2.0 -1 13
+ 1.616144 10 8 gka 64 ------- 0 18.0 2.0 -1 13
r 1.616144 13 11 gka 64 ------- 0 19.0 3.0 -1 15
+ 1.616144 11 9 gka 64 ------- 0 19.0 3.0 -1 15
- 1.616144 10 8 gka 64 ------- 0 18.0 2.0 -1 13
- 1.616144 11 9 gka 64 ------- 0 19.0 3.0 -1 15
r 1.626144 10 8 gka 64 ------- 0 18.0 0.0 -1 12
+ 1.626144 8 6 gka 64 ------- 0 18.0 0.0 -1 12
- 1.626144 8 6 gka 64 ------- 0 18.0 0.0 -1 12
r 1.626144 11 9 gka 64 ------- 0 19.0 1.0 -1 14
+ 1.626144 9 7 gka 64 ------- 0 19.0 1.0 -1 14
- 1.626144 9 7 gka 64 ------- 0 19.0 1.0 -1 14
r 1.626656 10 8 gka 64 ------- 0 18.0 2.0 -1 13
+ 1.626656 8 6 gka 64 ------- 0 18.0 2.0 -1 13
r 1.626656 11 9 gka 64 ------- 0 19.0 3.0 -1 15
+ 1.626656 9 7 gka 64 ------- 0 19.0 3.0 -1 15
- 1.626656 8 6 gka 64 ------- 0 18.0 2.0 -1 13
- 1.626656 9 7 gka 64 ------- 0 19.0 3.0 -1 15
r 1.636656 8 6 gka 64 ------- 0 18.0 0.0 -1 12
+ 1.636656 6 4 gka 64 ------- 0 18.0 0.0 -1 12
- 1.636656 6 4 gka 64 ------- 0 18.0 0.0 -1 12
r 1.636656 9 7 gka 64 ------- 0 19.0 1.0 -1 14
+ 1.636656 7 5 gka 64 ------- 0 19.0 1.0 -1 14
- 1.636656 7 5 gka 64 ------- 0 19.0 1.0 -1 14
r 1.637168 8 6 gka 64 ------- 0 18.0 2.0 -1 13
+ 1.637168 6 4 gka 64 ------- 0 18.0 2.0 -1 13
r 1.637168 9 7 gka 64 ------- 0 19.0 3.0 -1 15
+ 1.637168 7 5 gka 64 ------- 0 19.0 3.0 -1 15
- 1.637168 6 4 gka 64 ------- 0 18.0 2.0 -1 13
- 1.637168 7 5 gka 64 ------- 0 19.0 3.0 -1 15
r 1.647168 6 4 gka 64 ------- 0 18.0 0.0 -1 12
+ 1.647168 4 2 gka 64 ------- 0 18.0 0.0 -1 12
- 1.647168 4 2 gka 64 ------- 0 18.0 0.0 -1 12
r 1.647168 7 5 gka 64 ------- 0 19.0 1.0 -1 14
+ 1.647168 5 3 gka 64 ------- 0 19.0 1.0 -1 14
- 1.647168 5 3 gka 64 ------- 0 19.0 1.0 -1 14
r 1.64768 6 4 gka 64 ------- 0 18.0 2.0 -1 13
+ 1.64768 4 2 gka 64 ------- 0 18.0 2.0 -1 13
r 1.64768 7 5 gka 64 ------- 0 19.0 3.0 -1 15
+ 1.64768 5 3 gka 64 ------- 0 19.0 3.0 -1 15
- 1.64768 4 2 gka 64 ------- 0 18.0 2.0 -1 13
- 1.64768 5 3 gka 64 ------- 0 19.0 3.0 -1 15
r 1.65768 4 2 gka 64 ------- 0 18.0 0.0 -1 12
+ 1.65768 2 0 gka 64 ------- 0 18.0 0.0 -1 12
- 1.65768 2 0 gka 64 ------- 0 18.0 0.0 -1 12
r 1.65768 5 3 gka 64 ------- 0 19.0 1.0 -1 14
+ 1.65768 3 1 gka 64 ------- 0 19.0 1.0 -1 14
- 1.65768 3 1 gka 64 ------- 0 19.0 1.0 -1 14
r 1.658192 4 2 gka 64 ------- 0 18.0 2.0 -1 13
+ 1.658192 2 4 gka 64 ------- 0 2.0 18.0 -1 16
- 1.658192 2 4 gka 64 ------- 0 2.0 18.0 -1 16
r 1.658192 5 3 gka 64 ------- 0 19.0 3.0 -1 15
+ 1.658192 3 5 gka 64 ------- 0 3.0 19.0 -1 17
- 1.658192 3 5 gka 64 ------- 0 3.0 19.0 -1 17
r 1.668192 2 0 gka 64 ------- 0 18.0 0.0 -1 12
+ 1.668192 0 2 gka 64 ------- 0 0.0 18.0 -1 18
- 1.668192 0 2 gka 64 ------- 0 0.0 18.0 -1 18
r 1.668192 3 1 gka 64 ------- 0 19.0 1.0 -1 14
+ 1.668192 1 3 gka 64 ------- 0 1.0 19.0 -1 19
- 1.668192 1 3 gka 64 ------- 0 1.0 19.0 -1 19
r 1.668704 2 4 gka 64 ------- 0 2.0 18.0 -1 16
+ 1.668704 4 6 gka 64 ------- 0 2.0 18.0 -1 16
- 1.668704 4 6 gka 64 ------- 0 2.0 18.0 -1 16
r 1.668704 3 5 gka 64 ------- 0 3.0 19.0 -1 17
+ 1.668704 5 7 gka 64 ------- 0 3.0 19.0 -1 17
- 1.668704 5 7 gka 64 ------- 0 3.0 19.0 -1 17
r 1.678704 0 2 gka 64 ------- 0 0.0 18.0 -1 18
+ 1.678704 2 4 gka 64 ------- 0 0.0 18.0 -1 18
- 1.678704 2 4 gka 64 ------- 0 0.0 18.0 -1 18
r 1.678704 1 3 gka 64 ------- 0 1.0 19.0 -1 19
+ 1.678704 3 5 gka 64 ------- 0 1.0 19.0 -1 19
- 1.678704 3 5 gka 64 ------- 0 1.0 19.0 -1 19
r 1.679216 4 6 gka 64 ------- 0 2.0 18.0 -1 16
+ 1.679216 6 8 gka 64 ------- 0 2.0 18.0 -1 16
- 1.679216 6 8 gka 64 ------- 0 2.0 18.0 -1 16
r 1.679216 5 7 gka 64 ------- 0 3.0 19.0 -1 17
+ 1.679216 7 9 gka 64 ------- 0 3.0 19.0 -1 17
- 1.679216 7 9 gka 64 ------- 0 3.0 19.0 -1 17
r 1.689216 2 4 gka 64 ------- 0 0.0 18.0 -1 18
+ 1.689216 4 6 gka 64 ------- 0 0.0 18.0 -1 18
- 1.689216 4 6 gka 64 ------- 0 0.0 18.0 -1 18
r 1.689216 3 5 gka 64 ------- 0 1.0 19.0 -1 19
+ 1.689216 5 7 gka 64 ------- 0 1.0 19.0 -1 19
- 1.689216 5 7 gka 64 ------- 0 1.0 19.0 -1 19
r 1.689728 6 8 gka 64 ------- 0 2.0 18.0 -1 16
+ 1.689728 8 10 gka 64 ------- 0 2.0 18.0 -1 16
- 1.689728 8 10 gka 64 ------- 0 2.0 18.0 -1 16
r 1.689728 7 9 gka 64 ------- 0 3.0 19.0 -1 17
+ 1.689728 9 11 gka 64 ------- 0 3.0 19.0 -1 17
- 1.689728 9 11 gka 64 ------- 0 3.0 19.0 -1 17
r 1.699728 4 6 gka 64 ------- 0 0.0 18.0 -1 18
+ 1.699728 6 8 gka 64 ------- 0 0.0 18.0 -1 18
- 1.699728 6 8 gka 64 ------- 0 0.0 18.0 -1 18
r 1.699728 5 7 gka 64 ------- 0 1.0 19.0 -1 19
+ 1.699728 7 9 gka 64 ------- 0 1.0 19.0 -1 19
- 1.699728 7 9 gka 64 ------- 0 1.0 19.0 -1 19
r 1.70024 8 10 gka 64 ------- 0 2.0 18.0 -1 16
+ 1.70024 10 12 gka 64 ------- 0 2.0 18.0 -1 16
- 1.70024 10 12 gka 64 ------- 0 2.0 18.0 -1 16
r 1.70024 9 11 gka 64 ------- 0 3.0 19.0 -1 17
+ 1.70024 11 13 gka 64 ------- 0 3.0 19.0 -1 17
- 1.70024 11 13 gka 64 ------- 0 3.0 19.0 -1 17
r 1.71024 6 8 gka 64 ------- 0 0.0 18.0 -1 18
+ 1.71024 8 10 gka 64 ------- 0 0.0 18.0 -1 18
- 1.71024 8 10 gka 64 ------- 0 0.0 18.0 -1 18
r 1.71024 7 9 gka 64 ------- 0 1.0 19.0 -1 19
+ 1.71024 9 11 gka 64 ------- 0 1.0 19.0 -1 19
- 1.71024 9 11 gka 64 ------- 0 1.0 19.0 -1 19
r 1.710752 10 12 gka 64 ------- 0 2.0 18.0 -1 16
+ 1.710752 12 14 gka 64 ------- 0 2.0 18.0 -1 16
- 1.710752 12 14 gka 64 ------- 0 2.0 18.0 -1 16
r 1.710752 11 13 gka 64 ------- 0 3.0 19.0 -1 17
+ 1.710752 13 15 gka 64 ------- 0 3.0 19.0 -1 17
- 1.710752 13 15 gka 64 ------- 0 3.0 19.0 -1 17
r 1.720752 8 10 gka 64 ------- 0 0.0 18.0 -1 18
+ 1.720752 10 12 gka 64 ------- 0 0.0 18.0 -1 18
- 1.720752 10 12 gka 64 ------- 0 0.0 18.0 -1 18
r 1.720752 9 11 gka 64 ------- 0 1.0 19.0 -1 19
+ 1.720752 11 13 gka 64 ------- 0 1.0 19.0 -1 19
- 1.720752 11 13 gka 64 ------- 0 1.0 19.0 -1 19
r 1.721264 12 14 gka 64 ------- 0 2.0 18.0 -1 16
+ 1.721264 14 16 gka 64 ------- 0 2.0 18.0 -1 16
- 1.721264 14 16 gka 64 ------- 0 2.0 18.0 -1 16
r 1.721264 13 15 gka 64 ------- 0 3.0 19.0 -1 17
+ 1.721264 15 17 gka 64 ------- 0 3.0 19.0 -1 17
- 1.721264 15 17 gka 64 ------- 0 3.0 19.0 -1 17
r 1.731264 10 12 gka 64 ------- 0 0.0 18.0 -1 18
+ 1.731264 12 14 gka 64 ------- 0 0.0 18.0 -1 18
- 1.731264 12 14 gka 64 ------- 0 0.0 18.0 -1 18
r 1.731264 11 13 gka 64 ------- 0 1.0 19.0 -1 19
+ 1.731264 13 15 gka 64 ------- 0 1.0 19.0 -1 19
- 1.731264 13 15 gka 64 ------- 0 1.0 19.0 -1 19
r 1.731776 14 16 gka 64 ------- 0 2.0 18.0 -1 16
+ 1.731776 16 18 gka 64 ------- 0 2.0 18.0 -1 16
- 1.731776 16 18 gka 64 ------- 0 2.0 18.0 -1 16
r 1.731776 15 17 gka 64 ------- 0 3.0 19.0 -1 17
+ 1.731776 17 19 gka 64 ------- 0 3.0 19.0 -1 17
- 1.731776 17 19 gka 64 ------- 0 3.0 19.0 -1 17
r 1.741776 12 14 gka 64 ------- 0 0.0 18.0 -1 18
+ 1.741776 14 16 gka 64 ------- 0 0.0 18.0 -1 18
- 1.741776 14 16 gka 64 ------- 0 0.0 18.0 -1 18
r 1.741776 13 15 gka 64 ------- 0 1.0 19.0 -1 19
+ 1.741776 15 17 gka 64 ------- 0 1.0 19.0 -1 19
- 1.741776 15 17 gka 64 ------- 0 1.0 19.0 -1 19
r 1.742288 16 18 gka 64 ------- 0 2.0 18.0 -1 16
r 1.742288 17 19 gka 64 ------- 0 3.0 19.0 -1 17
r 1.752288 14 16 gka 64 ------- 0 0.0 18.0 -1 18
+ 1.752288 16 18 gka 64 ------- 0 0.0 18.0 -1 18
- 1.752288 16 18 gka 64 ------- 0 0.0 18.0 -1 18
r 1.752288 15 17 gka 64 ------- 0 1.0 19.0 -1 19
+ 1.752288 17 19 gka 64 ------- 0 1.0 19.0 -1 19
- 1.752288 17 19 gka 64 ------- 0 1.0 19.0 -1 19
r 1.7628 16 18 gka 64 ------- 0 0.0 18.0 -1 18
+ 1.7628 18 16 gka 512 ------- 0 18.0 0.0 -1 20
- 1.7628 18 16 gka 512 ------- 0 18.0 0.0 -1 20
+ 1.7628 18 16 gka 512 ------- 0 18.0 2.0 -1 21
+ 1.7628 18 16 gka 512 ------- 0 18.0 4.0 -1 22
r 1.7628 17 19 gka 64 ------- 0 1.0 19.0 -1 19
+ 1.7628 19 17 gka 512 ------- 0 19.0 1.0 -1 23
- 1.7628 19 17 gka 512 ------- 0 19.0 1.0 -1 23
+ 1.7628 19 17 gka 512 ------- 0 19.0 3.0 -1 24
+ 1.7628 19 17 gka 512 ------- 0 19.0 5.0 -1 25
- 1.766896 18 16 gka 512 ------- 0 18.0 2.0 -1 21
- 1.766896 19 17 gka 512 ------- 0 19.0 3.0 -1 24
- 1.770992 18 16 gka 512 ------- 0 18.0 4.0 -1 22
- 1.770992 19 17 gka 512 ------- 0 19.0 5.0 -1 25
r 1.776896 18 16 gka 512 ------- 0 18.0 0.0 -1 20
+ 1.776896 16 14 gka 512 ------- 0 18.0 0.0 -1 20
- 1.776896 16 14 gka 512 ------- 0 18.0 0.0 -1 20
r 1.776896 19 17 gka 512 ------- 0 19.0 1.0 -1 23
+ 1.776896 17 15 gka 512 ------- 0 19.0 1.0 -1 23
- 1.776896 17 15 gka 512 ------- 0 19.0 1.0 -1 23
r 1.780992 18 16 gka 512 ------- 0 18.0 2.0 -1 21
+ 1.780992 16 14 gka 512 ------- 0 18.0 2.0 -1 21
r 1.780992 19 17 gka 512 ------- 0 19.0 3.0 -1 24
+ 1.780992 17 15 gka 512 ------- 0 19.0 3.0 -1 24
- 1.780992 16 14 gka 512 ------- 0 18.0 2.0 -1 21
- 1.780992 17 15 gka 512 ------- 0 19.0 3.0 -1 24
r 1.785088 18 16 gka 512 ------- 0 18.0 4.0 -1 22
+ 1.785088 16 14 gka 512 ------- 0 18.0 4.0 -1 22
r 1.785088 19 17 gka 512 ------- 0 19.0 5.0 -1 25
+ 1.785088 17 15 gka 512 ------- 0 19.0 5.0 -1 25
- 1.785088 16 14 gka 512 ------- 0 18.0 4.0 -1 22
- 1.785088 17 15 gka 512 ------- 0 19.0 5.0 -1 25
r 1.790992 16 14 gka 512 ------- 0 18.0 0.0 -1 20
+ 1.790992 14 12 gka 512 ------- 0 18.0 0.0 -1 20
- 1.790992 14 12 gka 512 ------- 0 18.0 0.0 -1 20
r 1.790992 17 15 gka 512 ------- 0 19.0 1.0 -1 23
+ 1.790992 15 13 gka 512 ------- 0 19.0 1.0 -1 23
- 1.790992 15 13 gka 512 ------- 0 19.0 1.0 -1 23
r 1.795088 16 14 gka 512 ------- 0 18.0 2.0 -1 21
+ 1.795088 14 12 gka 512 ------- 0 18.0 2.0 -1 21
r 1.795088 17 15 gka 512 ------- 0 19.0 3.0 -1 24
+ 1.795088 15 13 gka 512 ------- 0 19.0 3.0 -1 24
- 1.795088 14 12 gka 512 ------- 0 18.0 2.0 -1 21
- 1.795088 15 13 gka 512 ------- 0 19.0 3.0 -1 24
r 1.799184 16 14 gka 512 ------- 0 18.0 4.0 -1 22
+ 1.799184 14 12 gka 512 ------- 0 18.0 4.0 -1 22
r 1.799184 17 15 gka 512 ------- 0 19.0 5.0 -1 25
+ 1.799184 15 13 gka 512 ------- 0 19.0 5.0 -1 25
- 1.799184 14 12 gka 512 ------- 0 18.0 4.0 -1 22
- 1.799184 15 13 gka 512 ------- 0 19.0 5.0 -1 25
r 1.805088 14 12 gka 512 ------- 0 18.0 0.0 -1 20
+ 1.805088 12 10 gka 512 ------- 0 18.0 0.0 -1 20
- 1.805088 12 10 gka 512 ------- 0 18.0 0.0 -1 20
r 1.805088 15 13 gka 512 ------- 0 19.0 1.0 -1 23
+ 1.805088 13 11 gka 512 ------- 0 19.0 1.0 -1 23
- 1.805088 13 11 gka 512 ------- 0 19.0 1.0 -1 23
r 1.809184 14 12 gka 512 ------- 0 18.0 2.0 -1 21
+ 1.809184 12 10 gka 512 ------- 0 18.0 2.0 -1 21
r 1.809184 15 13 gka 512 ------- 0 19.0 3.0 -1 24
+ 1.809184 13 11 gka 512 ------- 0 19.0 3.0 -1 24
- 1.809184 12 10 gka 512 ------- 0 18.0 2.0 -1 21
- 1.809184 13 11 gka 512 ------- 0 19.0 3.0 -1 24
r 1.81328 14 12 gka 512 ------- 0 18.0 4.0 -1 22
+ 1.81328 12 10 gka 512 ------- 0 18.0 4.0 -1 22
r 1.81328 15 13 gka 512 ------- 0 19.0 5.0 -1 25
+ 1.81328 13 11 gka 512 ------- 0 19.0 5.0 -1 25
- 1.81328 12 10 gka 512 ------- 0 18.0 4.0 -1 22
- 1.81328 13 11 gka 512 ------- 0 19.0 5.0 -1 25
r 1.819184 12 10 gka 512 ------- 0 18.0 0.0 -1 20
+ 1.819184 10 8 gka 512 ------- 0 18.0 0.0 -1 20
- 1.819184 10 8 gka 512 ------- 0 18.0 0.0 -1 20
r 1.819184 13 11 gka 512 ------- 0 19.0 1.0 -1 23
+ 1.819184 11 9 gka 512 ------- 0 19.0 1.0 -1 23
- 1.819184 11 9 gka 512 ------- 0 19.0 1.0 -1 23
r 1.82328 12 10 gka 512 ------- 0 18.0 2.0 -1 21
+ 1.82328 10 8 gka 512 ------- 0 18.0 2.0 -1 21
r 1.82328 13 11 gka 512 ------- 0 19.0 3.0 -1 24
+ 1.82328 11 9 gka 512 ------- 0 19.0 3.0 -1 24
- 1.82328 10 8 gka 512 ------- 0 18.0 2.0 -1 21
- 1.82328 11 9 gka 512 ------- 0 19.0 3.0 -1 24
r 1.827376 12 10 gka 512 ------- 0 18.0 4.0 -1 22
+ 1.827376 10 8 gka 512 ------- 0 18.0 4.0 -1 22
r 1.827376 13 11 gka 512 ------- 0 19.0 5.0 -1 25
+ 1.827376 11 9 gka 512 ------- 0 19.0 5.0 -1 25
- 1.827376 10 8 gka 512 ------- 0 18.0 4.0 -1 22
- 1.827376 11 9 gka 512 ------- 0 19.0 5.0 -1 25
r 1.83328 10 8 gka 512 ------- 0 18.0 0.0 -1 20
+ 1.83328 8 6 gka 512 ------- 0 18.0 0.0 -1 20
- 1.83328 8 6 gka 512 ------- 0 18.0 0.0 -1 20
r 1.83328 11 9 gka 512 ------- 0 19.0 1.0 -1 23
+ 1.83328 9 7 gka 512 ------- 0 19.0 1.0 -1 23
- 1.83328 9 7 gka 512 ------- 0 19.0 1.0 -1 23
r 1.837376 10 8 gka 512 ------- 0 18.0 2.0 -1 21
+ 1.837376 8 6 gka 512 ------- 0 18.0 2.0 -1 21
r 1.837376 11 9 gka 512 ------- 0 19.0 3.0 -1 24
+ 1.837376 9 7 gka 512 ------- 0 19.0 3.0 -1 24
- 1.837376 8 6 gka 512 ------- 0 18.0 2.0 -1 21
- 1.837376 9 7 gka 512 ------- 0 19.0 3.0 -1 24
r 1.841472 10 8 gka 512 ------- 0 18.0 4.0 -1 22
+ 1.841472 8 6 gka 512 ------- 0 18.0 4.0 -1 22
r 1.841472 11 9 gka 512 ------- 0 19.0 5.0 -1 25
+ 1.841472 9 7 gka 512 ------- 0 19.0 5.0 -1 25
- 1.841472 8 6 gka 512 ------- 0 18.0 4.0 -1 22
- 1.841472 9 7 gka 512 ------- 0 19.0 5.0 -1 25
r 1.847376 8 6 gka 512 ------- 0 18.0 0.0 -1 20
+ 1.847376 6 4 gka 512 ------- 0 18.0 0.0 -1 20
- 1.847376 6 4 gka 512 ------- 0 18.0 0.0 -1 20
r 1.847376 9 7 gka 512 ------- 0 19.0 1.0 -1 23
+ 1.847376 7 5 gka 512 ------- 0 19.0 1.0 -1 23
- 1.847376 7 5 gka 512 ------- 0 19.0 1.0 -1 23
r 1.851472 8 6 gka 512 ------- 0 18.0 2.0 -1 21
+ 1.851472 6 4 gka 512 ------- 0 18.0 2.0 -1 21
r 1.851472 9 7 gka 512 ------- 0 19.0 3.0 -1 24
+ 1.851472 7 5 gka 512 ------- 0 19.0 3.0 -1 24
- 1.851472 6 4 gka 512 ------- 0 18.0 2.0 -1 21
- 1.851472 7 5 gka 512 ------- 0 19.0 3.0 -1 24
r 1.855568 8 6 gka 512 ------- 0 18.0 4.0 -1 22
+ 1.855568 6 4 gka 512 ------- 0 18.0 4.0 -1 22
r 1.855568 9 7 gka 512 ------- 0 19.0 5.0 -1 25
+ 1.855568 7 5 gka 512 ------- 0 19.0 5.0 -1 25
- 1.855568 6 4 gka 512 ------- 0 18.0 4.0 -1 22
- 1.855568 7 5 gka 512 ------- 0 19.0 5.0 -1 25
r 1.861472 6 4 gka 512 ------- 0 18.0 0.0 -1 20
+ 1.861472 4 2 gka 512 ------- 0 18.0 0.0 -1 20
- 1.861472 4 2 gka 512 ------- 0 18.0 0.0 -1 20