+ 0.5 0 2 undefined 64 ------- 0 0.0 18.0 -1 0
- 0.5 0 2 undefined 64 ------- 0 0.0 18.0 -1 0
+ 0.5 1 3 undefined 64 ------- 0 1.0 19.0 -1 1
- 0.5 1 3 undefined 64 ------- 0 1.0 19.0 -1 1
r 0.510512 0 2 undefined 64 ------- 0 0.0 18.0 -1 0
+ 0.510512 2 4 undefined 64 ------- 0 0.0 18.0 -1 0
- 0.510512 2 4 undefined 64 ------- 0 0.0 18.0 -1 0
r 0.510512 1 3 undefined 64 ------- 0 1.0 19.0 -1 1
+ 0.510512 3 5 undefined 64 ------- 0 1.0 19.0 -1 1
- 0.510512 3 5 undefined 64 ------- 0 1.0 19.0 -1 1
r 0.521024 2 4 undefined 64 ------- 0 0.0 18.0 -1 0
+ 0.521024 4 6 undefined 64 ------- 0 0.0 18.0 -1 0
- 0.521024 4 6 undefined 64 ------- 0 0.0 18.0 -1 0
r 0.521024 3 5 undefined 64 ------- 0 1.0 19.0 -1 1
+ 0.521024 5 7 undefined 64 ------- 0 1.0 19.0 -1 1
- 0.521024 5 7 undefined 64 ------- 0 1.0 19.0 -1 1
r 0.531536 4 6 undefined 64 ------- 0 0.0 18.0 -1 0
+ 0.531536 6 8 undefined 64 ------- 0 0.0 18.0 -1 0
- 0.531536 6 8 undefined 64 ------- 0 0.0 18.0 -1 0
r 0.531536 5 7 undefined 64 ------- 0 1.0 19.0 -1 1
+ 0.531536 7 9 undefined 64 ------- 0 1.0 19.0 -1 1
- 0.531536 7 9 undefined 64 ------- 0 1.0 19.0 -1 1
r 0.542048 6 8 undefined 64 ------- 0 0.0 18.0 -1 0
+ 0.542048 8 10 undefined 64 ------- 0 0.0 18.0 -1 0
- 0.542048 8 10 undefined 64 ------- 0 0.0 18.0 -1 0
r 0.542048 7 9 undefined 64 ------- 0 1.0 19.0 -1 1
+ 0.542048 9 11 undefined 64 ------- 0 1.0 19.0 -1 1
- 0.542048 9 11 undefined 64 ------- 0 1.0 19.0 -1 1
r 0.55256 8 10 undefined 64 ------- 0 0.0 18.0 -1 0
+ 0.55256 10 12 undefined 64 ------- 0 0.0 18.0 -1 0
- 0.55256 10 12 undefined 64 ------- 0 0.0 18.0 -1 0
r 0.55256 9 11 undefined 64 ------- 0 1.0 19.0 -1 1
+ 0.55256 11 13 undefined 64 ------- 0 1.0 19.0 -1 1
- 0.55256 11 13 undefined 64 ------- 0 1.0 19.0 -1 1
r 0.563072 10 12 undefined 64 ------- 0 0.0 18.0 -1 0
+ 0.563072 12 14 undefined 64 ------- 0 0.0 18.0 -1 0
- 0.563072 12 14 undefined 64 ------- 0 0.0 18.0 -1 0
r 0.563072 11 13 undefined 64 ------- 0 1.0 19.0 -1 1
+ 0.563072 13 15 undefined 64 ------- 0 1.0 19.0 -1 1
- 0.563072 13 15 undefined 64 ------- 0 1.0 19.0 -1 1
r 0.573584 12 14 undefined 64 ------- 0 0.0 18.0 -1 0
+ 0.573584 14 16 undefined 64 ------- 0 0.0 18.0 -1 0
- 0.573584 14 16 undefined 64 ------- 0 0.0 18.0 -1 0
r 0.573584 13 15 undefined 64 ------- 0 1.0 19.0 -1 1
+ 0.573584 15 17 undefined 64 ------- 0 1.0 19.0 -1 1
- 0.573584 15 17 undefined 64 ------- 0 1.0 19.0 -1 1
r 0.584096 14 16 undefined 64 ------- 0 0.0 18.0 -1 0
+ 0.584096 16 18 undefined 64 ------- 0 0.0 18.0 -1 0
- 0.584096 16 18 undefined 64 ------- 0 0.0 18.0 -1 0
r 0.584096 15 17 undefined 64 ------- 0 1.0 19.0 -1 1
+ 0.584096 17 19 undefined 64 ------- 0 1.0 19.0 -1 1
- 0.584096 17 19 undefined 64 ------- 0 1.0 19.0 -1 1
r 0.594608 16 18 undefined 64 ------- 0 0.0 18.0 -1 0
+ 0.594608 18 16 undefined 64 ------- 0 18.0 0.0 -1 2
- 0.594608 18 16 undefined 64 ------- 0 18.0 0.0 -1 2
r 0.594608 17 19 undefined 64 ------- 0 1.0 19.0 -1 1
+ 0.594608 19 17 undefined 64 ------- 0 19.0 1.0 -1 3
- 0.594608 19 17 undefined 64 ------- 0 19.0 1.0 -1 3
r 0.60512 18 16 undefined 64 ------- 0 18.0 0.0 -1 2
+ 0.60512 16 14 undefined 64 ------- 0 18.0 0.0 -1 2
- 0.60512 16 14 undefined 64 ------- 0 18.0 0.0 -1 2
r 0.60512 19 17 undefined 64 ------- 0 19.0 1.0 -1 3
+ 0.60512 17 15 undefined 64 ------- 0 19.0 1.0 -1 3
- 0.60512 17 15 undefined 64 ------- 0 19.0 1.0 -1 3
r 0.615632 16 14 undefined 64 ------- 0 18.0 0.0 -1 2
+ 0.615632 14 12 undefined 64 ------- 0 18.0 0.0 -1 2
- 0.615632 14 12 undefined 64 ------- 0 18.0 0.0 -1 2
r 0.615632 17 15 undefined 64 ------- 0 19.0 1.0 -1 3
+ 0.615632 15 13 undefined 64 ------- 0 19.0 1.0 -1 3
- 0.615632 15 13 undefined 64 ------- 0 19.0 1.0 -1 3
r 0.626144 14 12 undefined 64 ------- 0 18.0 0.0 -1 2
+ 0.626144 12 10 undefined 64 ------- 0 18.0 0.0 -1 2
- 0.626144 12 10 undefined 64 ------- 0 18.0 0.0 -1 2
r 0.626144 15 13 undefined 64 ------- 0 19.0 1.0 -1 3
+ 0.626144 13 11 undefined 64 ------- 0 19.0 1.0 -1 3
- 0.626144 13 11 undefined 64 ------- 0 19.0 1.0 -1 3
r 0.636656 12 10 undefined 64 ------- 0 18.0 0.0 -1 2
+ 0.636656 10 8 undefined 64 ------- 0 18.0 0.0 -1 2
- 0.636656 10 8 undefined 64 ------- 0 18.0 0.0 -1 2
r 0.636656 13 11 undefined 64 ------- 0 19.0 1.0 -1 3
+ 0.636656 11 9 undefined 64 ------- 0 19.0 1.0 -1 3
- 0.636656 11 9 undefined 64 ------- 0 19.0 1.0 -1 3
r 0.647168 10 8 undefined 64 ------- 0 18.0 0.0 -1 2
+ 0.647168 8 6 undefined 64 ------- 0 18.0 0.0 -1 2
- 0.647168 8 6 undefined 64 ------- 0 18.0 0.0 -1 2
r 0.647168 11 9 undefined 64 ------- 0 19.0 1.0 -1 3
+ 0.647168 9 7 undefined 64 ------- 0 19.0 1.0 -1 3
- 0.647168 9 7 undefined 64 ------- 0 19.0 1.0 -1 3
r 0.65768 8 6 undefined 64 ------- 0 18.0 0.0 -1 2
+ 0.65768 6 4 undefined 64 ------- 0 18.0 0.0 -1 2
- 0.65768 6 4 undefined 64 ------- 0 18.0 0.0 -1 2
r 0.65768 9 7 undefined 64 ------- 0 19.0 1.0 -1 3
+ 0.65768 7 5 undefined 64 ------- 0 19.0 1.0 -1 3
- 0.65768 7 5 undefined 64 ------- 0 19.0 1.0 -1 3
r 0.668192 6 4 undefined 64 ------- 0 18.0 0.0 -1 2
+ 0.668192 4 2 undefined 64 ------- 0 18.0 0.0 -1 2
- 0.668192 4 2 undefined 64 ------- 0 18.0 0.0 -1 2
r 0.668192 7 5 undefined 64 ------- 0 19.0 1.0 -1 3
+ 0.668192 5 3 undefined 64 ------- 0 19.0 1.0 -1 3
- 0.668192 5 3 undefined 64 ------- 0 19.0 1.0 -1 3
r 0.678704 4 2 undefined 64 ------- 0 18.0 0.0 -1 2
+ 0.678704 2 0 undefined 64 ------- 0 18.0 0.0 -1 2
- 0.678704 2 0 undefined 64 ------- 0 18.0 0.0 -1 2
r 0.678704 5 3 undefined 64 ------- 0 19.0 1.0 -1 3
+ 0.678704 3 1 undefined 64 ------- 0 19.0 1.0 -1 3
- 0.678704 3 1 undefined 64 ------- 0 19.0 1.0 -1 3
r 0.689216 2 0 undefined 64 ------- 0 18.0 0.0 -1 2
r 0.689216 3 1 undefined 64 ------- 0 19.0 1.0 -1 3
+ 1 2 4 undefined 64 ------- 0 2.0 18.0 -1 4
- 1 2 4 undefined 64 ------- 0 2.0 18.0 -1 4
+ 1 3 5 undefined 64 ------- 0 3.0 19.0 -1 5
- 1 3 5 undefined 64 ------- 0 3.0 19.0 -1 5
r 1.010512 2 4 undefined 64 ------- 0 2.0 18.0 -1 4
+ 1.010512 4 6 undefined 64 ------- 0 2.0 18.0 -1 4
- 1.010512 4 6 undefined 64 ------- 0 2.0 18.0 -1 4
r 1.010512 3 5 undefined 64 ------- 0 3.0 19.0 -1 5
+ 1.010512 5 7 undefined 64 ------- 0 3.0 19.0 -1 5
- 1.010512 5 7 undefined 64 ------- 0 3.0 19.0 -1 5
r 1.021024 4 6 undefined 64 ------- 0 2.0 18.0 -1 4
+ 1.021024 6 8 undefined 64 ------- 0 2.0 18.0 -1 4
- 1.021024 6 8 undefined 64 ------- 0 2.0 18.0 -1 4
r 1.021024 5 7 undefined 64 ------- 0 3.0 19.0 -1 5
+ 1.021024 7 9 undefined 64 ------- 0 3.0 19.0 -1 5
- 1.021024 7 9 undefined 64 ------- 0 3.0 19.0 -1 5
r 1.031536 6 8 undefined 64 ------- 0 2.0 18.0 -1 4
+ 1.031536 8 10 undefined 64 ------- 0 2.0 18.0 -1 4
- 1.031536 8 10 undefined 64 ------- 0 2.0 18.0 -1 4
r 1.031536 7 9 undefined 64 ------- 0 3.0 19.0 -1 5
+ 1.031536 9 11 undefined 64 ------- 0 3.0 19.0 -1 5
- 1.031536 9 11 undefined 64 ------- 0 3.0 19.0 -1 5
r 1.042048 8 10 undefined 64 ------- 0 2.0 18.0 -1 4
+ 1.042048 10 12 undefined 64 ------- 0 2.0 18.0 -1 4
- 1.042048 10 12 undefined 64 ------- 0 2.0 18.0 -1 4
r 1.042048 9 11 undefined 64 ------- 0 3.0 19.0 -1 5
+ 1.042048 11 13 undefined 64 ------- 0 3.0 19.0 -1 5
- 1.042048 11 13 undefined 64 ------- 0 3.0 19.0 -1 5
r 1.05256 10 12 undefined 64 ------- 0 2.0 18.0 -1 4
+ 1.05256 12 14 undefined 64 ------- 0 2.0 18.0 -1 4
- 1.05256 12 14 undefined 64 ------- 0 2.0 18.0 -1 4
r 1.05256 11 13 undefined 64 ------- 0 3.0 19.0 -1 5
+ 1.05256 13 15 undefined 64 ------- 0 3.0 19.0 -1 5
- 1.05256 13 15 undefined 64 ------- 0 3.0 19.0 -1 5
r 1.063072 12 14 undefined 64 ------- 0 2.0 18.0 -1 4
+ 1.063072 14 16 undefined 64 ------- 0 2.0 18.0 -1 4
- 1.063072 14 16 undefined 64 ------- 0 2.0 18.0 -1 4
r 1.063072 13 15 undefined 64 ------- 0 3.0 19.0 -1 5
+ 1.063072 15 17 undefined 64 ------- 0 3.0 19.0 -1 5
- 1.063072 15 17 undefined 64 ------- 0 3.0 19.0 -1 5
r 1.073584 14 16 undefined 64 ------- 0 2.0 18.0 -1 4
+ 1.073584 16 18 undefined 64 ------- 0 2.0 18.0 -1 4
- 1.073584 16 18 undefined 64 ------- 0 2.0 18.0 -1 4
r 1.073584 15 17 undefined 64 ------- 0 3.0 19.0 -1 5
+ 1.073584 17 19 undefined 64 ------- 0 3.0 19.0 -1 5
- 1.073584 17 19 undefined 64 ------- 0 3.0 19.0 -1 5
r 1.084096 16 18 undefined 64 ------- 0 2.0 18.0 -1 4
+ 1.084096 18 16 undefined 64 ------- 0 18.0 0.0 -1 6
- 1.084096 18 16 undefined 64 ------- 0 18.0 0.0 -1 6
+ 1.084096 18 16 undefined 64 ------- 0 18.0 2.0 -1 7
r 1.084096 17 19 undefined 64 ------- 0 3.0 19.0 -1 5
+ 1.084096 19 17 undefined 64 ------- 0 19.0 1.0 -1 8
- 1.084096 19 17 undefined 64 ------- 0 19.0 1.0 -1 8
+ 1.084096 19 17 undefined 64 ------- 0 19.0 3.0 -1 9
- 1.084608 18 16 undefined 64 ------- 0 18.0 2.0 -1 7
- 1.084608 19 17 undefined 64 ------- 0 19.0 3.0 -1 9
r 1.094608 18 16 undefined 64 ------- 0 18.0 0.0 -1 6
+ 1.094608 16 14 undefined 64 ------- 0 18.0 0.0 -1 6
- 1.094608 16 14 undefined 64 ------- 0 18.0 0.0 -1 6
r 1.094608 19 17 undefined 64 ------- 0 19.0 1.0 -1 8
+ 1.094608 17 15 undefined 64 ------- 0 19.0 1.0 -1 8
- 1.094608 17 15 undefined 64 ------- 0 19.0 1.0 -1 8
r 1.09512 18 16 undefined 64 ------- 0 18.0 2.0 -1 7
+ 1.09512 16 14 undefined 64 ------- 0 18.0 2.0 -1 7
r 1.09512 19 17 undefined 64 ------- 0 19.0 3.0 -1 9
+ 1.09512 17 15 undefined 64 ------- 0 19.0 3.0 -1 9
- 1.09512 16 14 undefined 64 ------- 0 18.0 2.0 -1 7
- 1.09512 17 15 undefined 64 ------- 0 19.0 3.0 -1 9
r 1.10512 16 14 undefined 64 ------- 0 18.0 0.0 -1 6
+ 1.10512 14 12 undefined 64 ------- 0 18.0 0.0 -1 6
- 1.10512 14 12 undefined 64 ------- 0 18.0 0.0 -1 6
r 1.10512 17 15 undefined 64 ------- 0 19.0 1.0 -1 8
+ 1.10512 15 13 undefined 64 ------- 0 19.0 1.0 -1 8
- 1.10512 15 13 undefined 64 ------- 0 19.0 1.0 -1 8
r 1.105632 16 14 undefined 64 ------- 0 18.0 2.0 -1 7
+ 1.105632 14 12 undefined 64 ------- 0 18.0 2.0 -1 7
r 1.105632 17 15 undefined 64 ------- 0 19.0 3.0 -1 9
+ 1.105632 15 13 undefined 64 ------- 0 19.0 3.0 -1 9
- 1.105632 14 12 undefined 64 ------- 0 18.0 2.0 -1 7
- 1.105632 15 13 undefined 64 ------- 0 19.0 3.0 -1 9
r 1.115632 14 12 undefined 64 ------- 0 18.0 0.0 -1 6
+ 1.115632 12 10 undefined 64 ------- 0 18.0 0.0 -1 6
- 1.115632 12 10 undefined 64 ------- 0 18.0 0.0 -1 6
r 1.115632 15 13 undefined 64 ------- 0 19.0 1.0 -1 8
+ 1.115632 13 11 undefined 64 ------- 0 19.0 1.0 -1 8
- 1.115632 13 11 undefined 64 ------- 0 19.0 1.0 -1 8
r 1.116144 14 12 undefined 64 ------- 0 18.0 2.0 -1 7
+ 1.116144 12 10 undefined 64 ------- 0 18.0 2.0 -1 7
r 1.116144 15 13 undefined 64 ------- 0 19.0 3.0 -1 9
+ 1.116144 13 11 undefined 64 ------- 0 19.0 3.0 -1 9
- 1.116144 12 10 undefined 64 ------- 0 18.0 2.0 -1 7
- 1.116144 13 11 undefined 64 ------- 0 19.0 3.0 -1 9
r 1.126144 12 10 undefined 64 ------- 0 18.0 0.0 -1 6
+ 1.126144 10 8 undefined 64 ------- 0 18.0 0.0 -1 6
- 1.126144 10 8 undefined 64 ------- 0 18.0 0.0 -1 6
r 1.126144 13 11 undefined 64 ------- 0 19.0 1.0 -1 8
+ 1.126144 11 9 undefined 64 ------- 0 19.0 1.0 -1 8
- 1.126144 11 9 undefined 64 ------- 0 19.0 1.0 -1 8
r 1.126656 12 10 undefined 64 ------- 0 18.0 2.0 -1 7
+ 1.126656 10 8 undefined 64 ------- 0 18.0 2.0 -1 7
r 1.126656 13 11 undefined 64 ------- 0 19.0 3.0 -1 9
+ 1.126656 11 9 undefined 64 ------- 0 19.0 3.0 -1 9
- 1.126656 10 8 undefined 64 ------- 0 18.0 2.0 -1 7
- 1.126656 11 9 undefined 64 ------- 0 19.0 3.0 -1 9
r 1.136656 10 8 undefined 64 ------- 0 18.0 0.0 -1 6
+ 1.136656 8 6 undefined 64 ------- 0 18.0 0.0 -1 6
- 1.136656 8 6 undefined 64 ------- 0 18.0 0.0 -1 6
r 1.136656 11 9 undefined 64 ------- 0 19.0 1.0 -1 8
+ 1.136656 9 7 undefined 64 ------- 0 19.0 1.0 -1 8
- 1.136656 9 7 undefined 64 ------- 0 19.0 1.0 -1 8
r 1.137168 10 8 undefined 64 ------- 0 18.0 2.0 -1 7
+ 1.137168 8 6 undefined 64 ------- 0 18.0 2.0 -1 7
r 1.137168 11 9 undefined 64 ------- 0 19.0 3.0 -1 9
+ 1.137168 9 7 undefined 64 ------- 0 19.0 3.0 -1 9
- 1.137168 8 6 undefined 64 ------- 0 18.0 2.0 -1 7
- 1.137168 9 7 undefined 64 ------- 0 19.0 3.0 -1 9
r 1.147168 8 6 undefined 64 ------- 0 18.0 0.0 -1 6
+ 1.147168 6 4 undefined 64 ------- 0 18.0 0.0 -1 6
- 1.147168 6 4 undefined 64 ------- 0 18.0 0.0 -1 6
r 1.147168 9 7 undefined 64 ------- 0 19.0 1.0 -1 8
+ 1.147168 7 5 undefined 64 ------- 0 19.0 1.0 -1 8
- 1.147168 7 5 undefined 64 ------- 0 19.0 1.0 -1 8
r 1.14768 8 6 undefined 64 ------- 0 18.0 2.0 -1 7
+ 1.14768 6 4 undefined 64 ------- 0 18.0 2.0 -1 7
r 1.14768 9 7 undefined 64 ------- 0 19.0 3.0 -1 9
+ 1.14768 7 5 undefined 64 ------- 0 19.0 3.0 -1 9
- 1.14768 6 4 undefined 64 ------- 0 18.0 2.0 -1 7
- 1.14768 7 5 undefined 64 ------- 0 19.0 3.0 -1 9
r 1.15768 6 4 undefined 64 ------- 0 18.0 0.0 -1 6
+ 1.15768 4 2 undefined 64 ------- 0 18.0 0.0 -1 6
- 1.15768 4 2 undefined 64 ------- 0 18.0 0.0 -1 6
r 1.15768 7 5 undefined 64 ------- 0 19.0 1.0 -1 8
+ 1.15768 5 3 undefined 64 ------- 0 19.0 1.0 -1 8
- 1.15768 5 3 undefined 64 ------- 0 19.0 1.0 -1 8
r 1.158192 6 4 undefined 64 ------- 0 18.0 2.0 -1 7
+ 1.158192 4 2 undefined 64 ------- 0 18.0 2.0 -1 7
r 1.158192 7 5 undefined 64 ------- 0 19.0 3.0 -1 9
+ 1.158192 5 3 undefined 64 ------- 0 19.0 3.0 -1 9
- 1.158192 4 2 undefined 64 ------- 0 18.0 2.0 -1 7
- 1.158192 5 3 undefined 64 ------- 0 19.0 3.0 -1 9
r 1.168192 4 2 undefined 64 ------- 0 18.0 0.0 -1 6
+ 1.168192 2 0 undefined 64 ------- 0 18.0 0.0 -1 6
- 1.168192 2 0 undefined 64 ------- 0 18.0 0.0 -1 6
r 1.168192 5 3 undefined 64 ------- 0 19.0 1.0 -1 8
+ 1.168192 3 1 undefined 64 ------- 0 19.0 1.0 -1 8
- 1.168192 3 1 undefined 64 ------- 0 19.0 1.0 -1 8
r 1.168704 4 2 undefined 64 ------- 0 18.0 2.0 -1 7
r 1.168704 5 3 undefined 64 ------- 0 19.0 3.0 -1 9
r 1.178704 2 0 undefined 64 ------- 0 18.0 0.0 -1 6
r 1.178704 3 1 undefined 64 ------- 0 19.0 1.0 -1 8
+ 1.5 4 6 undefined 64 ------- 0 4.0 18.0 -1 10
- 1.5 4 6 undefined 64 ------- 0 4.0 18.0 -1 10
+ 1.5 5 7 undefined 64 ------- 0 5.0 19.0 -1 11
- 1.5 5 7 undefined 64 ------- 0 5.0 19.0 -1 11
r 1.510512 4 6 undefined 64 ------- 0 4.0 18.0 -1 10
+ 1.510512 6 8 undefined 64 ------- 0 4.0 18.0 -1 10
- 1.510512 6 8 undefined 64 ------- 0 4.0 18.0 -1 10
r 1.510512 5 7 undefined 64 ------- 0 5.0 19.0 -1 11
+ 1.510512 7 9 undefined 64 ------- 0 5.0 19.0 -1 11
- 1.510512 7 9 undefined 64 ------- 0 5.0 19.0 -1 11
r 1.521024 6 8 undefined 64 ------- 0 4.0 18.0 -1 10
+ 1.521024 8 10 undefined 64 ------- 0 4.0 18.0 -1 10
- 1.521024 8 10 undefined 64 ------- 0 4.0 18.0 -1 10
r 1.521024 7 9 undefined 64 ------- 0 5.0 19.0 -1 11
+ 1.521024 9 11 undefined 64 ------- 0 5.0 19.0 -1 11
- 1.521024 9 11 undefined 64 ------- 0 5.0 19.0 -1 11
r 1.531536 8 10 undefined 64 ------- 0 4.0 18.0 -1 10
+ 1.531536 10 12 undefined 64 ------- 0 4.0 18.0 -1 10
- 1.531536 10 12 undefined 64 ------- 0 4.0 18.0 -1 10
r 1.531536 9 11 undefined 64 ------- 0 5.0 19.0 -1 11
+ 1.531536 11 13 undefined 64 ------- 0 5.0 19.0 -1 11
- 1.531536 11 13 undefined 64 ------- 0 5.0 19.0 -1 11
r 1.542048 10 12 undefined 64 ------- 0 4.0 18.0 -1 10
+ 1.542048 12 14 undefined 64 ------- 0 4.0 18.0 -1 10
- 1.542048 12 14 undefined 64 ------- 0 4.0 18.0 -1 10
r 1.542048 11 13 undefined 64 ------- 0 5.0 19.0 -1 11
+ 1.542048 13 15 undefined 64 ------- 0 5.0 19.0 -1 11
- 1.542048 13 15 undefined 64 ------- 0 5.0 19.0 -1 11
r 1.55256 12 14 undefined 64 ------- 0 4.0 18.0 -1 10
+ 1.55256 14 16 undefined 64 ------- 0 4.0 18.0 -1 10
- 1.55256 14 16 undefined 64 ------- 0 4.0 18.0 -1 10
r 1.55256 13 15 undefined 64 ------- 0 5.0 19.0 -1 11
+ 1.55256 15 17 undefined 64 ------- 0 5.0 19.0 -1 11
- 1.55256 15 17 undefined 64 ------- 0 5.0 19.0 -1 11
r 1.563072 14 16 undefined 64 ------- 0 4.0 18.0 -1 10
+ 1.563072 16 18 undefined 64 ------- 0 4.0 18.0 -1 10
- 1.563072 16 18 undefined 64 ------- 0 4.0 18.0 -1 10
r 1.563072 15 17 undefined 64 ------- 0 5.0 19.0 -1 11
+ 1.563072 17 19 undefined 64 ------- 0 5.0 19.0 -1 11
- 1.563072 17 19 undefined 64 ------- 0 5.0 19.0 -1 11
r 1.573584 16 18 undefined 64 ------- 0 4.0 18.0 -1 10
+ 1.573584 18 16 undefined 64 ------- 0 18.0 0.0 -1 12
- 1.573584 18 16 undefined 64 ------- 0 18.0 0.0 -1 12
+ 1.573584 18 16 undefined 64 ------- 0 18.0 2.0 -1 13
+ 1.573584 18 16 undefined 64 ------- 0 18.0 4.0 -1 14
r 1.573584 17 19 undefined 64 ------- 0 5.0 19.0 -1 11
+ 1.573584 19 17 undefined 64 ------- 0 19.0 1.0 -1 15
- 1.573584 19 17 undefined 64 ------- 0 19.0 1.0 -1 15
+ 1.573584 19 17 undefined 64 ------- 0 19.0 3.0 -1 16
+ 1.573584 19 17 undefined 64 ------- 0 19.0 5.0 -1 17
- 1.574096 18 16 undefined 64 ------- 0 18.0 2.0 -1 13
- 1.574096 19 17 undefined 64 ------- 0 19.0 3.0 -1 16
- 1.574608 18 16 undefined 64 ------- 0 18.0 4.0 -1 14
- 1.574608 19 17 undefined 64 ------- 0 19.0 5.0 -1 17
r 1.584096 18 16 undefined 64 ------- 0 18.0 0.0 -1 12
+ 1.584096 16 14 undefined 64 ------- 0 18.0 0.0 -1 12
- 1.584096 16 14 undefined 64 ------- 0 18.0 0.0 -1 12
r 1.584096 19 17 undefined 64 ------- 0 19.0 1.0 -1 15
+ 1.584096 17 15 undefined 64 ------- 0 19.0 1.0 -1 15
- 1.584096 17 15 undefined 64 ------- 0 19.0 1.0 -1 15
r 1.584608 18 16 undefined 64 ------- 0 18.0 2.0 -1 13
+ 1.584608 16 14 undefined 64 ------- 0 18.0 2.0 -1 13
r 1.584608 19 17 undefined 64 ------- 0 19.0 3.0 -1 16
+ 1.584608 17 15 undefined 64 ------- 0 19.0 3.0 -1 16
- 1.584608 16 14 undefined 64 ------- 0 18.0 2.0 -1 13
- 1.584608 17 15 undefined 64 ------- 0 19.0 3.0 -1 16
r 1.58512 18 16 undefined 64 ------- 0 18.0 4.0 -1 14
+ 1.58512 16 14 undefined 64 ------- 0 18.0 4.0 -1 14
r 1.58512 19 17 undefined 64 ------- 0 19.0 5.0 -1 17
+ 1.58512 17 15 undefined 64 ------- 0 19.0 5.0 -1 17
- 1.58512 16 14 undefined 64 ------- 0 18.0 4.0 -1 14
- 1.58512 17 15 undefined 64 ------- 0 19.0 5.0 -1 17
r 1.594608 16 14 undefined 64 ------- 0 18.0 0.0 -1 12
+ 1.594608 14 12 undefined 64 ------- 0 18.0 0.0 -1 12
- 1.594608 14 12 undefined 64 ------- 0 18.0 0.0 -1 12
r 1.594608 17 15 undefined 64 ------- 0 19.0 1.0 -1 15
+ 1.594608 15 13 undefined 64 ------- 0 19.0 1.0 -1 15
- 1.594608 15 13 undefined 64 ------- 0 19.0 1.0 -1 15
r 1.59512 16 14 undefined 64 ------- 0 18.0 2.0 -1 13
+ 1.59512 14 12 undefined 64 ------- 0 18.0 2.0 -1 13
r 1.59512 17 15 undefined 64 ------- 0 19.0 3.0 -1 16
+ 1.59512 15 13 undefined 64 ------- 0 19.0 3.0 -1 16
- 1.59512 14 12 undefined 64 ------- 0 18.0 2.0 -1 13
- 1.59512 15 13 undefined 64 ------- 0 19.0 3.0 -1 16
r 1.595632 16 14 undefined 64 ------- 0 18.0 4.0 -1 14
+ 1.595632 14 12 undefined 64 ------- 0 18.0 4.0 -1 14
r 1.595632 17 15 undefined 64 ------- 0 19.0 5.0 -1 17
+ 1.595632 15 13 undefined 64 ------- 0 19.0 5.0 -1 17
- 1.595632 14 12 undefined 64 ------- 0 18.0 4.0 -1 14
- 1.595632 15 13 undefined 64 ------- 0 19.0 5.0 -1 17
r 1.60512 14 12 undefined 64 ------- 0 18.0 0.0 -1 12
+ 1.60512 12 10 undefined 64 ------- 0 18.0 0.0 -1 12
- 1.60512 12 10 undefined 64 ------- 0 18.0 0.0 -1 12
r 1.60512 15 13 undefined 64 ------- 0 19.0 1.0 -1 15
+ 1.60512 13 11 undefined 64 ------- 0 19.0 1.0 -1 15
- 1.60512 13 11 undefined 64 ------- 0 19.0 1.0 -1 15
r 1.605632 14 12 undefined 64 ------- 0 18.0 2.0 -1 13
+ 1.605632 12 10 undefined 64 ------- 0 18.0 2.0 -1 13
r 1.605632 15 13 undefined 64 ------- 0 19.0 3.0 -1 16
+ 1.605632 13 11 undefined 64 ------- 0 19.0 3.0 -1 16
- 1.605632 12 10 undefined 64 ------- 0 18.0 2.0 -1 13
- 1.605632 13 11 undefined 64 ------- 0 19.0 3.0 -1 16
r 1.606144 14 12 undefined 64 ------- 0 18.0 4.0 -1 14
+ 1.606144 12 10 undefined 64 ------- 0 18.0 4.0 -1 14
r 1.606144 15 13 undefined 64 ------- 0 19.0 5.0 -1 17
+ 1.606144 13 11 undefined 64 ------- 0 19.0 5.0 -1 17
- 1.606144 12 10 undefined 64 ------- 0 18.0 4.0 -1 14
- 1.606144 13 11 undefined 64 ------- 0 19.0 5.0 -1 17
r 1.615632 12 10 undefined 64 ------- 0 18.0 0.0 -1 12
+ 1.615632 10 8 undefined 64 ------- 0 18.0 0.0 -1 12
- 1.615632 10 8 undefined 64 ------- 0 18.0 0.0 -1 12
r 1.615632 13 11 undefined 64 ------- 0 19.0 1.0 -1 15
+ 1.615632 11 9 undefined 64 ------- 0 19.0 1.0 -1 15
- 1.615632 11 9 undefined 64 ------- 0 19.0 1.0 -1 15
r 1.616144 12 10 undefined 64 ------- 0 18.0 2.0 -1 13
+ 1.616144 10 8 undefined 64 ------- 0 18.0 2.0 -1 13
r 1.616144 13 11 undefined 64 ------- 0 19.0 3.0 -1 16
+ 1.616144 11 9 undefined 64 ------- 0 19.0 3.0 -1 16
- 1.616144 10 8 undefined 64 ------- 0 18.0 2.0 -1 13
- 1.616144 11 9 undefined 64 ------- 0 19.0 3.0 -1 16
r 1.616656 12 10 undefined 64 ------- 0 18.0 4.0 -1 14
+ 1.616656 10 8 undefined 64 ------- 0 18.0 4.0 -1 14
r 1.616656 13 11 undefined 64 ------- 0 19.0 5.0 -1 17
+ 1.616656 11 9 undefined 64 ------- 0 19.0 5.0 -1 17
- 1.616656 10 8 undefined 64 ------- 0 18.0 4.0 -1 14
- 1.616656 11 9 undefined 64 ------- 0 19.0 5.0 -1 17
r 1.626144 10 8 undefined 64 ------- 0 18.0 0.0 -1 12
+ 1.626144 8 6 undefined 64 ------- 0 18.0 0.0 -1 12
- 1.626144 8 6 undefined 64 ------- 0 18.0 0.0 -1 12
r 1.626144 11 9 undefined 64 ------- 0 19.0 1.0 -1 15
+ 1.626144 9 7 undefined 64 ------- 0 19.0 1.0 -1 15
- 1.626144 9 7 undefined 64 ------- 0 19.0 1.0 -1 15
r 1.626656 10 8 undefined 64 ------- 0 18.0 2.0 -1 13
+ 1.626656 8 6 undefined 64 ------- 0 18.0 2.0 -1 13
r 1.626656 11 9 undefined 64 ------- 0 19.0 3.0 -1 16
+ 1.626656 9 7 undefined 64 ------- 0 19.0 3.0 -1 16
- 1.626656 8 6 undefined 64 ------- 0 18.0 2.0 -1 13
- 1.626656 9 7 undefined 64 ------- 0 19.0 3.0 -1 16
r 1.627168 10 8 undefined 64 ------- 0 18.0 4.0 -1 14
+ 1.627168 8 6 undefined 64 ------- 0 18.0 4.0 -1 14
r 1.627168 11 9 undefined 64 ------- 0 19.0 5.0 -1 17
+ 1.627168 9 7 undefined 64 ------- 0 19.0 5.0 -1 17
- 1.627168 8 6 undefined 64 ------- 0 18.0 4.0 -1 14
- 1.627168 9 7 undefined 64 ------- 0 19.0 5.0 -1 17
r 1.636656 8 6 undefined 64 ------- 0 18.0 0.0 -1 12
+ 1.636656 6 4 undefined 64 ------- 0 18.0 0.0 -1 12
- 1.636656 6 4 undefined 64 ------- 0 18.0 0.0 -1 12
r 1.636656 9 7 undefined 64 ------- 0 19.0 1.0 -1 15
+ 1.636656 7 5 undefined 64 ------- 0 19.0 1.0 -1 15
- 1.636656 7 5 undefined 64 ------- 0 19.0 1.0 -1 15
r 1.637168 8 6 undefined 64 ------- 0 18.0 2.0 -1 13
+ 1.637168 6 4 undefined 64 ------- 0 18.0 2.0 -1 13
r 1.637168 9 7 undefined 64 ------- 0 19.0 3.0 -1 16
+ 1.637168 7 5 undefined 64 ------- 0 19.0 3.0 -1 16
- 1.637168 6 4 undefined 64 ------- 0 18.0 2.0 -1 13
- 1.637168 7 5 undefined 64 ------- 0 19.0 3.0 -1 16
r 1.63768 8 6 undefined 64 ------- 0 18.0 4.0 -1 14
+ 1.63768 6 4 undefined 64 ------- 0 18.0 4.0 -1 14
r 1.63768 9 7 undefined 64 ------- 0 19.0 5.0 -1 17
+ 1.63768 7 5 undefined 64 ------- 0 19.0 5.0 -1 17
- 1.63768 6 4 undefined 64 ------- 0 18.0 4.0 -1 14
- 1.63768 7 5 undefined 64 ------- 0 19.0 5.0 -1 17
r 1.647168 6 4 undefined 64 ------- 0 18.0 0.0 -1 12
+ 1.647168 4 2 undefined 64 ------- 0 18.0 0.0 -1 12
- 1.647168 4 2 undefined 64 ------- 0 18.0 0.0 -1 12
r 1.647168 7 5 undefined 64 ------- 0 19.0 1.0 -1 15
+ 1.647168 5 3 undefined 64 ------- 0 19.0 1.0 -1 15
- 1.647168 5 3 undefined 64 ------- 0 19.0 1.0 -1 15
r 1.64768 6 4 undefined 64 ------- 0 18.0 2.0 -1 13
+ 1.64768 4 2 undefined 64 ------- 0 18.0 2.0 -1 13
r 1.64768 7 5 undefined 64 ------- 0 19.0 3.0 -1 16
+ 1.64768 5 3 undefined 64 ------- 0 19.0 3.0 -1 16
- 1.64768 4 2 undefined 64 ------- 0 18.0 2.0 -1 13
- 1.64768 5 3 undefined 64 ------- 0 19.0 3.0 -1 16
r 1.648192 6 4 undefined 64 ------- 0 18.0 4.0 -1 14
r 1.648192 7 5 undefined 64 ------- 0 19.0 5.0 -1 17
r 1.65768 4 2 undefined 64 ------- 0 18.0 0.0 -1 12
+ 1.65768 2 0 undefined 64 ------- 0 18.0 0.0 -1 12
- 1.65768 2 0 undefined 64 ------- 0 18.0 0.0 -1 12
r 1.65768 5 3 undefined 64 ------- 0 19.0 1.0 -1 15
+ 1.65768 3 1 undefined 64 ------- 0 19.0 1.0 -1 15
- 1.65768 3 1 undefined 64 ------- 0 19.0 1.0 -1 15
r 1.658192 4 2 undefined 64 ------- 0 18.0 2.0 -1 13
r 1.658192 5 3 undefined 64 ------- 0 19.0 3.0 -1 16
r 1.668192 2 0 undefined 64 ------- 0 18.0 0.0 -1 12
r 1.668192 3 1 undefined 64 ------- 0 19.0 1.0 -1 15
+ 2 6 8 undefined 64 ------- 0 6.0 18.0 -1 18
- 2 6 8 undefined 64 ------- 0 6.0 18.0 -1 18
+ 2 7 9 undefined 64 ------- 0 7.0 19.0 -1 19
- 2 7 9 undefined 64 ------- 0 7.0 19.0 -1 19
r 2.010512 6 8 undefined 64 ------- 0 6.0 18.0 -1 18
+ 2.010512 8 10 undefined 64 ------- 0 6.0 18.0 -1 18
- 2.010512 8 10 undefined 64 ------- 0 6.0 18.0 -1 18
r 2.010512 7 9 undefined 64 ------- 0 7.0 19.0 -1 19
+ 2.010512 9 11 undefined 64 ------- 0 7.0 19.0 -1 19
- 2.010512 9 11 undefined 64 ------- 0 7.0 19.0 -1 19
r 2.021024 8 10 undefined 64 ------- 0 6.0 18.0 -1 18
+ 2.021024 10 12 undefined 64 ------- 0 6.0 18.0 -1 18
- 2.021024 10 12 undefined 64 ------- 0 6.0 18.0 -1 18
r 2.021024 9 11 undefined 64 ------- 0 7.0 19.0 -1 19
+ 2.021024 11 13 undefined 64 ------- 0 7.0 19.0 -1 19
- 2.021024 11 13 undefined 64 ------- 0 7.0 19.0 -1 19
r 2.031536 10 12 undefined 64 ------- 0 6.0 18.0 -1 18
+ 2.031536 12 14 undefined 64 ------- 0 6.0 18.0 -1 18
- 2.031536 12 14 undefined 64 ------- 0 6.0 18.0 -1 18
r 2.031536 11 13 undefined 64 ------- 0 7.0 19.0 -1 19
+ 2.031536 13 15 undefined 64 ------- 0 7.0 19.0 -1 19
- 2.031536 13 15 undefined 64 ------- 0 7.0 19.0 -1 19
r 2.042048 12 14 undefined 64 ------- 0 6.0 18.0 -1 18
+ 2.042048 14 16 undefined 64 ------- 0 6.0 18.0 -1 18
- 2.042048 14 16 undefined 64 ------- 0 6.0 18.0 -1 18
r 2.042048 13 15 undefined 64 ------- 0 7.0 19.0 -1 19
+ 2.042048 15 17 undefined 64 ------- 0 7.0 19.0 -1 19
- 2.042048 15 17 undefined 64 ------- 0 7.0 19.0 -1 19
r 2.05256 14 16 undefined 64 ------- 0 6.0 18.0 -1 18
+ 2.05256 16 18 undefined 64 ------- 0 6.0 18.0 -1 18
- 2.05256 16 18 undefined 64 ------- 0 6.0 18.0 -1 18
r 2.05256 15 17 undefined 64 ------- 0 7.0 19.0 -1 19
+ 2.05256 17 19 undefined 64 ------- 0 7.0 19.0 -1 19
- 2.05256 17 19 undefined 64 ------- 0 7.0 19.0 -1 19
r 2.063072 16 18 undefined 64 ------- 0 6.0 18.0 -1 18
+ 2.063072 18 16 undefined 64 ------- 0 18.0 0.0 -1 20
- 2.063072 18 16 undefined 64 ------- 0 18.0 0.0 -1 20
+ 2.063072 18 16 undefined 64 ------- 0 18.0 2.0 -1 21
+ 2.063072 18 16 undefined 64 ------- 0 18.0 4.0 -1 22
+ 2.063072 18 16 undefined 64 ------- 0 18.0 6.0 -1 23
r 2.063072 17 19 undefined 64 ------- 0 7.0 19.0 -1 19
+ 2.063072 19 17 undefined 64 ------- 0 19.0 1.0 -1 24
- 2.063072 19 17 undefined 64 ------- 0 19.0 1.0 -1 24
+ 2.063072 19 17 undefined 64 ------- 0 19.0 3.0 -1 25
+ 2.063072 19 17 undefined 64 ------- 0 19.0 5.0 -1 26
+ 2.063072 19 17 undefined 64 ------- 0 19.0 7.0 -1 27
- 2.063584 18 16 undefined 64 ------- 0 18.0 2.0 -1 21
- 2.063584 19 17 undefined 64 ------- 0 19.0 3.0 -1 25
- 2.064096 18 16 undefined 64 ------- 0 18.0 4.0 -1 22
- 2.064096 19 17 undefined 64 ------- 0 19.0 5.0 -1 26
- 2.064608 18 16 undefined 64 ------- 0 18.0 6.0 -1 23
- 2.064608 19 17 undefined 64 ------- 0 19.0 7.0 -1 27
r 2.073584 18 16 undefined 64 ------- 0 18.0 0.0 -1 20
+ 2.073584 16 14 undefined 64 ------- 0 18.0 0.0 -1 20
- 2.073584 16 14 undefined 64 ------- 0 18.0 0.0 -1 20
r 2.073584 19 17 undefined 64 ------- 0 19.0 1.0 -1 24
+ 2.073584 17 15 undefined 64 ------- 0 19.0 1.0 -1 24
- 2.073584 17 15 undefined 64 ------- 0 19.0 1.0 -1 24
r 2.074096 18 16 undefined 64 ------- 0 18.0 2.0 -1 21
+ 2.074096 16 14 undefined 64 ------- 0 18.0 2.0 -1 21
r 2.074096 19 17 undefined 64 ------- 0 19.0 3.0 -1 25
+ 2.074096 17 15 undefined 64 ------- 0 19.0 3.0 -1 25
- 2.074096 16 14 undefined 64 ------- 0 18.0 2.0 -1 21
- 2.074096 17 15 undefined 64 ------- 0 19.0 3.0 -1 25
r 2.074608 18 16 undefined 64 ------- 0 18.0 4.0 -1 22
+ 2.074608 16 14 undefined 64 ------- 0 18.0 4.0 -1 22
r 2.074608 19 17 undefined 64 ------- 0 19.0 5.0 -1 26
+ 2.074608 17 15 undefined 64 ------- 0 19.0 5.0 -1 26
- 2.074608 16 14 undefined 64 ------- 0 18.0 4.0 -1 22
- 2.074608 17 15 undefined 64 ------- 0 19.0 5.0 -1 26
r 2.07512 18 16 undefined 64 ------- 0 18.0 6.0 -1 23
+ 2.07512 16 14 undefined 64 ------- 0 18.0 6.0 -1 23
r 2.07512 19 17 undefined 64 ------- 0 19.0 7.0 -1 27
+ 2.07512 17 15 undefined 64 ------- 0 19.0 7.0 -1 27
- 2.07512 16 14 undefined 64 ------- 0 18.0 6.0 -1 23
- 2.07512 17 15 undefined 64 ------- 0 19.0 7.0 -1 27
r 2.084096 16 14 undefined 64 ------- 0 18.0 0.0 -1 20
+ 2.084096 14 12 undefined 64 ------- 0 18.0 0.0 -1 20
- 2.084096 14 12 undefined 64 ------- 0 18.0 0.0 -1 20
r 2.084096 17 15 undefined 64 ------- 0 19.0 1.0 -1 24
+ 2.084096 15 13 undefined 64 ------- 0 19.0 1.0 -1 24
- 2.084096 15 13 undefined 64 ------- 0 19.0 1.0 -1 24
r 2.084608 16 14 undefined 64 ------- 0 18.0 2.0 -1 21
+ 2.084608 14 12 undefined 64 ------- 0 18.0 2.0 -1 21
r 2.084608 17 15 undefined 64 ------- 0 19.0 3.0 -1 25
+ 2.084608 15 13 undefined 64 ------- 0 19.0 3.0 -1 25
- 2.084608 14 12 undefined 64 ------- 0 18.0 2.0 -1 21
- 2.084608 15 13 undefined 64 ------- 0 19.0 3.0 -1 25
r 2.08512 16 14 undefined 64 ------- 0 18.0 4.0 -1 22
+ 2.08512 14 12 undefined 64 ------- 0 18.0 4.0 -1 22
r 2.08512 17 15 undefined 64 ------- 0 19.0 5.0 -1 26
+ 2.08512 15 13 undefined 64 ------- 0 19.0 5.0 -1 26
- 2.08512 14 12 undefined 64 ------- 0 18.0 4.0 -1 22
- 2.08512 15 13 undefined 64 ------- 0 19.0 5.0 -1 26
r 2.085632 16 14 undefined 64 ------- 0 18.0 6.0 -1 23
+ 2.085632 14 12 undefined 64 ------- 0 18.0 6.0 -1 23
r 2.085632 17 15 undefined 64 ------- 0 19.0 7.0 -1 27
+ 2.085632 15 13 undefined 64 ------- 0 19.0 7.0 -1 27
- 2.085632 14 12 undefined 64 ------- 0 18.0 6.0 -1 23
- 2.085632 15 13 undefined 64 ------- 0 19.0 7.0 -1 27
r 2.094608 14 12 undefined 64 ------- 0 18.0 0.0 -1 20
+ 2.094608 12 10 undefined 64 ------- 0 18.0 0.0 -1 20
- 2.094608 12 10 undefined 64 ------- 0 18.0 0.0 -1 20
r 2.094608 15 13 undefined 64 ------- 0 19.0 1.0 -1 24
+ 2.094608 13 11 undefined 64 ------- 0 19.0 1.0 -1 24
- 2.094608 13 11 undefined 64 ------- 0 19.0 1.0 -1 24
r 2.09512 14 12 undefined 64 ------- 0 18.0 2.0 -1 21
+ 2.09512 12 10 undefined 64 ------- 0 18.0 2.0 -1 21
r 2.09512 15 13 undefined 64 ------- 0 19.0 3.0 -1 25
+ 2.09512 13 11 undefined 64 ------- 0 19.0 3.0 -1 25
- 2.09512 12 10 undefined 64 ------- 0 18.0 2.0 -1 21
- 2.09512 13 11 undefined 64 ------- 0 19.0 3.0 -1 25
r 2.095632 14 12 undefined 64 ------- 0 18.0 4.0 -1 22
+ 2.095632 12 10 undefined 64 ------- 0 18.0 4.0 -1 22
r 2.095632 15 13 undefined 64 ------- 0 19.0 5.0 -1 26
+ 2.095632 13 11 undefined 64 ------- 0 19.0 5.0 -1 26
- 2.095632 12 10 undefined 64 ------- 0 18.0 4.0 -1 22