+ 0.5 2 0 undefined 64 ------- 0 2.0 0.0 -1 0
- 0.5 2 0 undefined 64 ------- 0 2.0 0.0 -1 0
+ 0.5 3 1 undefined 64 ------- 0 3.0 1.0 -1 1
- 0.5 3 1 undefined 64 ------- 0 3.0 1.0 -1 1
r 0.510512 2 0 undefined 64 ------- 0 2.0 0.0 -1 0
+ 0.510512 0 2 undefined 256 ------- 0 0.0 2.0 -1 2
- 0.510512 0 2 undefined 256 ------- 0 0.0 2.0 -1 2
r 0.510512 3 1 undefined 64 ------- 0 3.0 1.0 -1 1
+ 0.510512 1 3 undefined 256 ------- 0 1.0 3.0 -1 3
- 0.510512 1 3 undefined 256 ------- 0 1.0 3.0 -1 3
r 0.52256 0 2 undefined 256 ------- 0 0.0 2.0 -1 2
r 0.52256 1 3 undefined 256 ------- 0 1.0 3.0 -1 3
+ 1 4 0 undefined 64 ------- 0 4.0 0.0 -1 4
- 1 4 0 undefined 64 ------- 0 4.0 0.0 -1 4
+ 1 5 1 undefined 64 ------- 0 5.0 1.0 -1 5
- 1 5 1 undefined 64 ------- 0 5.0 1.0 -1 5
r 1.010512 4 0 undefined 64 ------- 0 4.0 0.0 -1 4
+ 1.010512 0 2 undefined 384 ------- 0 0.0 2.0 -1 6
- 1.010512 0 2 undefined 384 ------- 0 0.0 2.0 -1 6
+ 1.010512 0 4 undefined 384 ------- 0 0.0 4.0 -1 7
- 1.010512 0 4 undefined 384 ------- 0 0.0 4.0 -1 7
r 1.010512 5 1 undefined 64 ------- 0 5.0 1.0 -1 5
+ 1.010512 1 3 undefined 384 ------- 0 1.0 3.0 -1 8
- 1.010512 1 3 undefined 384 ------- 0 1.0 3.0 -1 8
+ 1.010512 1 5 undefined 384 ------- 0 1.0 5.0 -1 9
- 1.010512 1 5 undefined 384 ------- 0 1.0 5.0 -1 9
r 1.023584 0 2 undefined 384 ------- 0 0.0 2.0 -1 6
r 1.023584 0 4 undefined 384 ------- 0 0.0 4.0 -1 7
r 1.023584 1 3 undefined 384 ------- 0 1.0 3.0 -1 8
r 1.023584 1 5 undefined 384 ------- 0 1.0 5.0 -1 9
+ 1.5 6 2 undefined 64 ------- 0 6.0 0.0 -1 10
- 1.5 6 2 undefined 64 ------- 0 6.0 0.0 -1 10
+ 1.5 7 3 undefined 64 ------- 0 7.0 1.0 -1 11
- 1.5 7 3 undefined 64 ------- 0 7.0 1.0 -1 11
r 1.510512 6 2 undefined 64 ------- 0 6.0 0.0 -1 10
+ 1.510512 2 0 undefined 64 ------- 0 6.0 0.0 -1 10
- 1.510512 2 0 undefined 64 ------- 0 6.0 0.0 -1 10
r 1.510512 7 3 undefined 64 ------- 0 7.0 1.0 -1 11
+ 1.510512 3 1 undefined 64 ------- 0 7.0 1.0 -1 11
- 1.510512 3 1 undefined 64 ------- 0 7.0 1.0 -1 11
r 1.521024 2 0 undefined 64 ------- 0 6.0 0.0 -1 10
+ 1.521024 0 2 undefined 64 ------- 0 0.0 2.0 -1 12
- 1.521024 0 2 undefined 64 ------- 0 0.0 2.0 -1 12
+ 1.521024 0 4 undefined 64 ------- 0 0.0 4.0 -1 13
- 1.521024 0 4 undefined 64 ------- 0 0.0 4.0 -1 13
r 1.521024 3 1 undefined 64 ------- 0 7.0 1.0 -1 11
+ 1.521024 1 3 undefined 64 ------- 0 1.0 3.0 -1 14
- 1.521024 1 3 undefined 64 ------- 0 1.0 3.0 -1 14
+ 1.521024 1 5 undefined 64 ------- 0 1.0 5.0 -1 15
- 1.521024 1 5 undefined 64 ------- 0 1.0 5.0 -1 15
r 1.531536 0 2 undefined 64 ------- 0 0.0 2.0 -1 12
+ 1.531536 2 0 undefined 64 ------- 0 2.0 0.0 -1 16
- 1.531536 2 0 undefined 64 ------- 0 2.0 0.0 -1 16
r 1.531536 0 4 undefined 64 ------- 0 0.0 4.0 -1 13
+ 1.531536 4 0 undefined 64 ------- 0 4.0 0.0 -1 17
- 1.531536 4 0 undefined 64 ------- 0 4.0 0.0 -1 17
r 1.531536 1 3 undefined 64 ------- 0 1.0 3.0 -1 14
+ 1.531536 3 1 undefined 64 ------- 0 3.0 1.0 -1 18
- 1.531536 3 1 undefined 64 ------- 0 3.0 1.0 -1 18
r 1.531536 1 5 undefined 64 ------- 0 1.0 5.0 -1 15
+ 1.531536 5 1 undefined 64 ------- 0 5.0 1.0 -1 19
- 1.531536 5 1 undefined 64 ------- 0 5.0 1.0 -1 19
r 1.542048 2 0 undefined 64 ------- 0 2.0 0.0 -1 16
r 1.542048 4 0 undefined 64 ------- 0 4.0 0.0 -1 17
+ 1.542048 0 2 undefined 512 ------- 0 0.0 2.0 -1 20
- 1.542048 0 2 undefined 512 ------- 0 0.0 2.0 -1 20
+ 1.542048 0 4 undefined 512 ------- 0 0.0 4.0 -1 21
- 1.542048 0 4 undefined 512 ------- 0 0.0 4.0 -1 21
+ 1.542048 0 2 undefined 512 ------- 0 0.0 6.0 -1 22
r 1.542048 3 1 undefined 64 ------- 0 3.0 1.0 -1 18
r 1.542048 5 1 undefined 64 ------- 0 5.0 1.0 -1 19
+ 1.542048 1 3 undefined 512 ------- 0 1.0 3.0 -1 23
- 1.542048 1 3 undefined 512 ------- 0 1.0 3.0 -1 23
+ 1.542048 1 5 undefined 512 ------- 0 1.0 5.0 -1 24
- 1.542048 1 5 undefined 512 ------- 0 1.0 5.0 -1 24
+ 1.542048 1 3 undefined 512 ------- 0 1.0 7.0 -1 25
- 1.546144 0 2 undefined 512 ------- 0 0.0 6.0 -1 22
- 1.546144 1 3 undefined 512 ------- 0 1.0 7.0 -1 25
r 1.556144 0 2 undefined 512 ------- 0 0.0 2.0 -1 20
r 1.556144 0 4 undefined 512 ------- 0 0.0 4.0 -1 21
r 1.556144 1 3 undefined 512 ------- 0 1.0 3.0 -1 23
r 1.556144 1 5 undefined 512 ------- 0 1.0 5.0 -1 24
r 1.56024 0 2 undefined 512 ------- 0 0.0 6.0 -1 22
+ 1.56024 2 6 undefined 512 ------- 0 0.0 6.0 -1 22
- 1.56024 2 6 undefined 512 ------- 0 0.0 6.0 -1 22
r 1.56024 1 3 undefined 512 ------- 0 1.0 7.0 -1 25
+ 1.56024 3 7 undefined 512 ------- 0 1.0 7.0 -1 25
- 1.56024 3 7 undefined 512 ------- 0 1.0 7.0 -1 25
r 1.574336 2 6 undefined 512 ------- 0 0.0 6.0 -1 22
r 1.574336 3 7 undefined 512 ------- 0 1.0 7.0 -1 25
+ 2 8 2 undefined 64 ------- 0 8.0 0.0 -1 26
- 2 8 2 undefined 64 ------- 0 8.0 0.0 -1 26
+ 2 9 3 undefined 64 ------- 0 9.0 1.0 -1 27
- 2 9 3 undefined 64 ------- 0 9.0 1.0 -1 27
r 2.010512 8 2 undefined 64 ------- 0 8.0 0.0 -1 26
+ 2.010512 2 0 undefined 64 ------- 0 8.0 0.0 -1 26
- 2.010512 2 0 undefined 64 ------- 0 8.0 0.0 -1 26
r 2.010512 9 3 undefined 64 ------- 0 9.0 1.0 -1 27
+ 2.010512 3 1 undefined 64 ------- 0 9.0 1.0 -1 27
- 2.010512 3 1 undefined 64 ------- 0 9.0 1.0 -1 27
r 2.021024 2 0 undefined 64 ------- 0 8.0 0.0 -1 26
+ 2.021024 0 2 undefined 64 ------- 0 0.0 2.0 -1 28
- 2.021024 0 2 undefined 64 ------- 0 0.0 2.0 -1 28
+ 2.021024 0 4 undefined 64 ------- 0 0.0 4.0 -1 29
- 2.021024 0 4 undefined 64 ------- 0 0.0 4.0 -1 29
+ 2.021024 0 2 undefined 64 ------- 0 0.0 6.0 -1 30
r 2.021024 3 1 undefined 64 ------- 0 9.0 1.0 -1 27
+ 2.021024 1 3 undefined 64 ------- 0 1.0 3.0 -1 31
- 2.021024 1 3 undefined 64 ------- 0 1.0 3.0 -1 31
+ 2.021024 1 5 undefined 64 ------- 0 1.0 5.0 -1 32
- 2.021024 1 5 undefined 64 ------- 0 1.0 5.0 -1 32
+ 2.021024 1 3 undefined 64 ------- 0 1.0 7.0 -1 33
- 2.021536 0 2 undefined 64 ------- 0 0.0 6.0 -1 30
- 2.021536 1 3 undefined 64 ------- 0 1.0 7.0 -1 33
r 2.031536 0 2 undefined 64 ------- 0 0.0 2.0 -1 28
+ 2.031536 2 0 undefined 64 ------- 0 2.0 0.0 -1 34
- 2.031536 2 0 undefined 64 ------- 0 2.0 0.0 -1 34
r 2.031536 0 4 undefined 64 ------- 0 0.0 4.0 -1 29
+ 2.031536 4 0 undefined 64 ------- 0 4.0 0.0 -1 35
- 2.031536 4 0 undefined 64 ------- 0 4.0 0.0 -1 35
r 2.031536 1 3 undefined 64 ------- 0 1.0 3.0 -1 31
+ 2.031536 3 1 undefined 64 ------- 0 3.0 1.0 -1 36
- 2.031536 3 1 undefined 64 ------- 0 3.0 1.0 -1 36
r 2.031536 1 5 undefined 64 ------- 0 1.0 5.0 -1 32
+ 2.031536 5 1 undefined 64 ------- 0 5.0 1.0 -1 37
- 2.031536 5 1 undefined 64 ------- 0 5.0 1.0 -1 37
r 2.032048 0 2 undefined 64 ------- 0 0.0 6.0 -1 30
+ 2.032048 2 6 undefined 64 ------- 0 0.0 6.0 -1 30
- 2.032048 2 6 undefined 64 ------- 0 0.0 6.0 -1 30
r 2.032048 1 3 undefined 64 ------- 0 1.0 7.0 -1 33
+ 2.032048 3 7 undefined 64 ------- 0 1.0 7.0 -1 33
- 2.032048 3 7 undefined 64 ------- 0 1.0 7.0 -1 33
r 2.042048 2 0 undefined 64 ------- 0 2.0 0.0 -1 34
r 2.042048 4 0 undefined 64 ------- 0 4.0 0.0 -1 35
r 2.042048 3 1 undefined 64 ------- 0 3.0 1.0 -1 36
r 2.042048 5 1 undefined 64 ------- 0 5.0 1.0 -1 37
r 2.04256 2 6 undefined 64 ------- 0 0.0 6.0 -1 30
+ 2.04256 6 2 undefined 64 ------- 0 6.0 0.0 -1 38
- 2.04256 6 2 undefined 64 ------- 0 6.0 0.0 -1 38
r 2.04256 3 7 undefined 64 ------- 0 1.0 7.0 -1 33
+ 2.04256 7 3 undefined 64 ------- 0 7.0 1.0 -1 39
- 2.04256 7 3 undefined 64 ------- 0 7.0 1.0 -1 39
r 2.053072 6 2 undefined 64 ------- 0 6.0 0.0 -1 38
+ 2.053072 2 0 undefined 64 ------- 0 6.0 0.0 -1 38
- 2.053072 2 0 undefined 64 ------- 0 6.0 0.0 -1 38
r 2.053072 7 3 undefined 64 ------- 0 7.0 1.0 -1 39
+ 2.053072 3 1 undefined 64 ------- 0 7.0 1.0 -1 39
- 2.053072 3 1 undefined 64 ------- 0 7.0 1.0 -1 39
r 2.063584 2 0 undefined 64 ------- 0 6.0 0.0 -1 38
+ 2.063584 0 2 undefined 640 ------- 0 0.0 2.0 -1 40
- 2.063584 0 2 undefined 640 ------- 0 0.0 2.0 -1 40
+ 2.063584 0 4 undefined 640 ------- 0 0.0 4.0 -1 41
- 2.063584 0 4 undefined 640 ------- 0 0.0 4.0 -1 41
+ 2.063584 0 2 undefined 640 ------- 0 0.0 6.0 -1 42
+ 2.063584 0 2 undefined 640 ------- 0 0.0 8.0 -1 43
r 2.063584 3 1 undefined 64 ------- 0 7.0 1.0 -1 39
+ 2.063584 1 3 undefined 640 ------- 0 1.0 3.0 -1 44
- 2.063584 1 3 undefined 640 ------- 0 1.0 3.0 -1 44
+ 2.063584 1 5 undefined 640 ------- 0 1.0 5.0 -1 45
- 2.063584 1 5 undefined 640 ------- 0 1.0 5.0 -1 45
+ 2.063584 1 3 undefined 640 ------- 0 1.0 7.0 -1 46
+ 2.063584 1 3 undefined 640 ------- 0 1.0 9.0 -1 47
- 2.068704 0 2 undefined 640 ------- 0 0.0 6.0 -1 42
- 2.068704 1 3 undefined 640 ------- 0 1.0 7.0 -1 46
- 2.073824 0 2 undefined 640 ------- 0 0.0 8.0 -1 43
- 2.073824 1 3 undefined 640 ------- 0 1.0 9.0 -1 47
r 2.078704 0 2 undefined 640 ------- 0 0.0 2.0 -1 40
r 2.078704 0 4 undefined 640 ------- 0 0.0 4.0 -1 41
r 2.078704 1 3 undefined 640 ------- 0 1.0 3.0 -1 44
r 2.078704 1 5 undefined 640 ------- 0 1.0 5.0 -1 45
r 2.083824 0 2 undefined 640 ------- 0 0.0 6.0 -1 42
+ 2.083824 2 6 undefined 640 ------- 0 0.0 6.0 -1 42
- 2.083824 2 6 undefined 640 ------- 0 0.0 6.0 -1 42
r 2.083824 1 3 undefined 640 ------- 0 1.0 7.0 -1 46
+ 2.083824 3 7 undefined 640 ------- 0 1.0 7.0 -1 46
- 2.083824 3 7 undefined 640 ------- 0 1.0 7.0 -1 46
r 2.088944 0 2 undefined 640 ------- 0 0.0 8.0 -1 43
+ 2.088944 2 8 undefined 640 ------- 0 0.0 8.0 -1 43
- 2.088944 2 8 undefined 640 ------- 0 0.0 8.0 -1 43
r 2.088944 1 3 undefined 640 ------- 0 1.0 9.0 -1 47
+ 2.088944 3 9 undefined 640 ------- 0 1.0 9.0 -1 47
- 2.088944 3 9 undefined 640 ------- 0 1.0 9.0 -1 47
r 2.098944 2 6 undefined 640 ------- 0 0.0 6.0 -1 42
r 2.098944 3 7 undefined 640 ------- 0 1.0 7.0 -1 46
r 2.104064 2 8 undefined 640 ------- 0 0.0 8.0 -1 43
r 2.104064 3 9 undefined 640 ------- 0 1.0 9.0 -1 47
+ 2.5 10 2 undefined 64 ------- 0 10.0 0.0 -1 48
- 2.5 10 2 undefined 64 ------- 0 10.0 0.0 -1 48
+ 2.5 11 3 undefined 64 ------- 0 11.0 1.0 -1 49
- 2.5 11 3 undefined 64 ------- 0 11.0 1.0 -1 49
r 2.510512 10 2 undefined 64 ------- 0 10.0 0.0 -1 48
+ 2.510512 2 0 undefined 64 ------- 0 10.0 0.0 -1 48
- 2.510512 2 0 undefined 64 ------- 0 10.0 0.0 -1 48
r 2.510512 11 3 undefined 64 ------- 0 11.0 1.0 -1 49
+ 2.510512 3 1 undefined 64 ------- 0 11.0 1.0 -1 49
- 2.510512 3 1 undefined 64 ------- 0 11.0 1.0 -1 49
r 2.521024 2 0 undefined 64 ------- 0 10.0 0.0 -1 48
+ 2.521024 0 2 undefined 64 ------- 0 0.0 2.0 -1 50
- 2.521024 0 2 undefined 64 ------- 0 0.0 2.0 -1 50
+ 2.521024 0 4 undefined 64 ------- 0 0.0 4.0 -1 51
- 2.521024 0 4 undefined 64 ------- 0 0.0 4.0 -1 51
+ 2.521024 0 2 undefined 64 ------- 0 0.0 6.0 -1 52
+ 2.521024 0 2 undefined 64 ------- 0 0.0 8.0 -1 53
r 2.521024 3 1 undefined 64 ------- 0 11.0 1.0 -1 49
+ 2.521024 1 3 undefined 64 ------- 0 1.0 3.0 -1 54
- 2.521024 1 3 undefined 64 ------- 0 1.0 3.0 -1 54
+ 2.521024 1 5 undefined 64 ------- 0 1.0 5.0 -1 55
- 2.521024 1 5 undefined 64 ------- 0 1.0 5.0 -1 55
+ 2.521024 1 3 undefined 64 ------- 0 1.0 7.0 -1 56
+ 2.521024 1 3 undefined 64 ------- 0 1.0 9.0 -1 57
- 2.521536 0 2 undefined 64 ------- 0 0.0 6.0 -1 52
- 2.521536 1 3 undefined 64 ------- 0 1.0 7.0 -1 56
- 2.522048 0 2 undefined 64 ------- 0 0.0 8.0 -1 53
- 2.522048 1 3 undefined 64 ------- 0 1.0 9.0 -1 57
r 2.531536 0 2 undefined 64 ------- 0 0.0 2.0 -1 50
+ 2.531536 2 0 undefined 64 ------- 0 2.0 0.0 -1 58
- 2.531536 2 0 undefined 64 ------- 0 2.0 0.0 -1 58
r 2.531536 0 4 undefined 64 ------- 0 0.0 4.0 -1 51
+ 2.531536 4 0 undefined 64 ------- 0 4.0 0.0 -1 59
- 2.531536 4 0 undefined 64 ------- 0 4.0 0.0 -1 59
r 2.531536 1 3 undefined 64 ------- 0 1.0 3.0 -1 54
+ 2.531536 3 1 undefined 64 ------- 0 3.0 1.0 -1 60
- 2.531536 3 1 undefined 64 ------- 0 3.0 1.0 -1 60
r 2.531536 1 5 undefined 64 ------- 0 1.0 5.0 -1 55
+ 2.531536 5 1 undefined 64 ------- 0 5.0 1.0 -1 61
- 2.531536 5 1 undefined 64 ------- 0 5.0 1.0 -1 61
r 2.532048 0 2 undefined 64 ------- 0 0.0 6.0 -1 52
+ 2.532048 2 6 undefined 64 ------- 0 0.0 6.0 -1 52
- 2.532048 2 6 undefined 64 ------- 0 0.0 6.0 -1 52
r 2.532048 1 3 undefined 64 ------- 0 1.0 7.0 -1 56
+ 2.532048 3 7 undefined 64 ------- 0 1.0 7.0 -1 56
- 2.532048 3 7 undefined 64 ------- 0 1.0 7.0 -1 56
r 2.53256 0 2 undefined 64 ------- 0 0.0 8.0 -1 53
+ 2.53256 2 8 undefined 64 ------- 0 0.0 8.0 -1 53
- 2.53256 2 8 undefined 64 ------- 0 0.0 8.0 -1 53
r 2.53256 1 3 undefined 64 ------- 0 1.0 9.0 -1 57
+ 2.53256 3 9 undefined 64 ------- 0 1.0 9.0 -1 57
- 2.53256 3 9 undefined 64 ------- 0 1.0 9.0 -1 57
r 2.542048 2 0 undefined 64 ------- 0 2.0 0.0 -1 58
r 2.542048 4 0 undefined 64 ------- 0 4.0 0.0 -1 59
r 2.542048 3 1 undefined 64 ------- 0 3.0 1.0 -1 60
r 2.542048 5 1 undefined 64 ------- 0 5.0 1.0 -1 61
r 2.54256 2 6 undefined 64 ------- 0 0.0 6.0 -1 52
+ 2.54256 6 2 undefined 64 ------- 0 6.0 0.0 -1 62
- 2.54256 6 2 undefined 64 ------- 0 6.0 0.0 -1 62
r 2.54256 3 7 undefined 64 ------- 0 1.0 7.0 -1 56
+ 2.54256 7 3 undefined 64 ------- 0 7.0 1.0 -1 63
- 2.54256 7 3 undefined 64 ------- 0 7.0 1.0 -1 63
r 2.543072 2 8 undefined 64 ------- 0 0.0 8.0 -1 53
+ 2.543072 8 2 undefined 64 ------- 0 8.0 0.0 -1 64
- 2.543072 8 2 undefined 64 ------- 0 8.0 0.0 -1 64
r 2.543072 3 9 undefined 64 ------- 0 1.0 9.0 -1 57
+ 2.543072 9 3 undefined 64 ------- 0 9.0 1.0 -1 65
- 2.543072 9 3 undefined 64 ------- 0 9.0 1.0 -1 65
r 2.553072 6 2 undefined 64 ------- 0 6.0 0.0 -1 62
+ 2.553072 2 0 undefined 64 ------- 0 6.0 0.0 -1 62
- 2.553072 2 0 undefined 64 ------- 0 6.0 0.0 -1 62
r 2.553072 7 3 undefined 64 ------- 0 7.0 1.0 -1 63
+ 2.553072 3 1 undefined 64 ------- 0 7.0 1.0 -1 63
- 2.553072 3 1 undefined 64 ------- 0 7.0 1.0 -1 63
r 2.553584 8 2 undefined 64 ------- 0 8.0 0.0 -1 64
+ 2.553584 2 0 undefined 64 ------- 0 8.0 0.0 -1 64
r 2.553584 9 3 undefined 64 ------- 0 9.0 1.0 -1 65
+ 2.553584 3 1 undefined 64 ------- 0 9.0 1.0 -1 65
- 2.553584 2 0 undefined 64 ------- 0 8.0 0.0 -1 64
- 2.553584 3 1 undefined 64 ------- 0 9.0 1.0 -1 65
r 2.563584 2 0 undefined 64 ------- 0 6.0 0.0 -1 62
r 2.563584 3 1 undefined 64 ------- 0 7.0 1.0 -1 63
r 2.564096 2 0 undefined 64 ------- 0 8.0 0.0 -1 64
+ 2.564096 0 2 undefined 768 ------- 0 0.0 2.0 -1 66
- 2.564096 0 2 undefined 768 ------- 0 0.0 2.0 -1 66
+ 2.564096 0 4 undefined 768 ------- 0 0.0 4.0 -1 67
- 2.564096 0 4 undefined 768 ------- 0 0.0 4.0 -1 67
+ 2.564096 0 2 undefined 768 ------- 0 0.0 6.0 -1 68
+ 2.564096 0 2 undefined 768 ------- 0 0.0 8.0 -1 69
+ 2.564096 0 2 undefined 768 ------- 0 0.0 10.0 -1 70
r 2.564096 3 1 undefined 64 ------- 0 9.0 1.0 -1 65
+ 2.564096 1 3 undefined 768 ------- 0 1.0 3.0 -1 71
- 2.564096 1 3 undefined 768 ------- 0 1.0 3.0 -1 71
+ 2.564096 1 5 undefined 768 ------- 0 1.0 5.0 -1 72
- 2.564096 1 5 undefined 768 ------- 0 1.0 5.0 -1 72
+ 2.564096 1 3 undefined 768 ------- 0 1.0 7.0 -1 73
+ 2.564096 1 3 undefined 768 ------- 0 1.0 9.0 -1 74
+ 2.564096 1 3 undefined 768 ------- 0 1.0 11.0 -1 75
- 2.57024 0 2 undefined 768 ------- 0 0.0 6.0 -1 68
- 2.57024 1 3 undefined 768 ------- 0 1.0 7.0 -1 73
- 2.576384 0 2 undefined 768 ------- 0 0.0 8.0 -1 69
- 2.576384 1 3 undefined 768 ------- 0 1.0 9.0 -1 74
r 2.58024 0 2 undefined 768 ------- 0 0.0 2.0 -1 66
r 2.58024 0 4 undefined 768 ------- 0 0.0 4.0 -1 67
r 2.58024 1 3 undefined 768 ------- 0 1.0 3.0 -1 71
r 2.58024 1 5 undefined 768 ------- 0 1.0 5.0 -1 72
- 2.582528 0 2 undefined 768 ------- 0 0.0 10.0 -1 70
- 2.582528 1 3 undefined 768 ------- 0 1.0 11.0 -1 75
r 2.586384 0 2 undefined 768 ------- 0 0.0 6.0 -1 68
+ 2.586384 2 6 undefined 768 ------- 0 0.0 6.0 -1 68
- 2.586384 2 6 undefined 768 ------- 0 0.0 6.0 -1 68
r 2.586384 1 3 undefined 768 ------- 0 1.0 7.0 -1 73
+ 2.586384 3 7 undefined 768 ------- 0 1.0 7.0 -1 73
- 2.586384 3 7 undefined 768 ------- 0 1.0 7.0 -1 73
r 2.592528 0 2 undefined 768 ------- 0 0.0 8.0 -1 69
+ 2.592528 2 8 undefined 768 ------- 0 0.0 8.0 -1 69
- 2.592528 2 8 undefined 768 ------- 0 0.0 8.0 -1 69
r 2.592528 1 3 undefined 768 ------- 0 1.0 9.0 -1 74
+ 2.592528 3 9 undefined 768 ------- 0 1.0 9.0 -1 74
- 2.592528 3 9 undefined 768 ------- 0 1.0 9.0 -1 74
r 2.598672 0 2 undefined 768 ------- 0 0.0 10.0 -1 70
+ 2.598672 2 10 undefined 768 ------- 0 0.0 10.0 -1 70
- 2.598672 2 10 undefined 768 ------- 0 0.0 10.0 -1 70
r 2.598672 1 3 undefined 768 ------- 0 1.0 11.0 -1 75
+ 2.598672 3 11 undefined 768 ------- 0 1.0 11.0 -1 75
- 2.598672 3 11 undefined 768 ------- 0 1.0 11.0 -1 75
r 2.602528 2 6 undefined 768 ------- 0 0.0 6.0 -1 68
r 2.602528 3 7 undefined 768 ------- 0 1.0 7.0 -1 73
r 2.608672 2 8 undefined 768 ------- 0 0.0 8.0 -1 69
r 2.608672 3 9 undefined 768 ------- 0 1.0 9.0 -1 74
r 2.614816 2 10 undefined 768 ------- 0 0.0 10.0 -1 70
r 2.614816 3 11 undefined 768 ------- 0 1.0 11.0 -1 75
+ 3 12 4 undefined 64 ------- 0 12.0 0.0 -1 76
- 3 12 4 undefined 64 ------- 0 12.0 0.0 -1 76
+ 3 13 5 undefined 64 ------- 0 13.0 1.0 -1 77
- 3 13 5 undefined 64 ------- 0 13.0 1.0 -1 77
r 3.010512 12 4 undefined 64 ------- 0 12.0 0.0 -1 76
+ 3.010512 4 0 undefined 64 ------- 0 12.0 0.0 -1 76
- 3.010512 4 0 undefined 64 ------- 0 12.0 0.0 -1 76
r 3.010512 13 5 undefined 64 ------- 0 13.0 1.0 -1 77
+ 3.010512 5 1 undefined 64 ------- 0 13.0 1.0 -1 77
- 3.010512 5 1 undefined 64 ------- 0 13.0 1.0 -1 77
r 3.021024 4 0 undefined 64 ------- 0 12.0 0.0 -1 76
+ 3.021024 0 2 undefined 64 ------- 0 0.0 2.0 -1 78
- 3.021024 0 2 undefined 64 ------- 0 0.0 2.0 -1 78
+ 3.021024 0 4 undefined 64 ------- 0 0.0 4.0 -1 79
- 3.021024 0 4 undefined 64 ------- 0 0.0 4.0 -1 79
+ 3.021024 0 2 undefined 64 ------- 0 0.0 6.0 -1 80
+ 3.021024 0 2 undefined 64 ------- 0 0.0 8.0 -1 81
+ 3.021024 0 2 undefined 64 ------- 0 0.0 10.0 -1 82
r 3.021024 5 1 undefined 64 ------- 0 13.0 1.0 -1 77
+ 3.021024 1 3 undefined 64 ------- 0 1.0 3.0 -1 83
- 3.021024 1 3 undefined 64 ------- 0 1.0 3.0 -1 83
+ 3.021024 1 5 undefined 64 ------- 0 1.0 5.0 -1 84
- 3.021024 1 5 undefined 64 ------- 0 1.0 5.0 -1 84
+ 3.021024 1 3 undefined 64 ------- 0 1.0 7.0 -1 85
+ 3.021024 1 3 undefined 64 ------- 0 1.0 9.0 -1 86
+ 3.021024 1 3 undefined 64 ------- 0 1.0 11.0 -1 87
- 3.021536 0 2 undefined 64 ------- 0 0.0 6.0 -1 80
- 3.021536 1 3 undefined 64 ------- 0 1.0 7.0 -1 85
- 3.022048 0 2 undefined 64 ------- 0 0.0 8.0 -1 81
- 3.022048 1 3 undefined 64 ------- 0 1.0 9.0 -1 86
- 3.02256 0 2 undefined 64 ------- 0 0.0 10.0 -1 82
- 3.02256 1 3 undefined 64 ------- 0 1.0 11.0 -1 87
r 3.031536 0 2 undefined 64 ------- 0 0.0 2.0 -1 78
+ 3.031536 2 0 undefined 64 ------- 0 2.0 0.0 -1 88
- 3.031536 2 0 undefined 64 ------- 0 2.0 0.0 -1 88
r 3.031536 0 4 undefined 64 ------- 0 0.0 4.0 -1 79
+ 3.031536 4 0 undefined 64 ------- 0 4.0 0.0 -1 89
- 3.031536 4 0 undefined 64 ------- 0 4.0 0.0 -1 89
r 3.031536 1 3 undefined 64 ------- 0 1.0 3.0 -1 83
+ 3.031536 3 1 undefined 64 ------- 0 3.0 1.0 -1 90
- 3.031536 3 1 undefined 64 ------- 0 3.0 1.0 -1 90
r 3.031536 1 5 undefined 64 ------- 0 1.0 5.0 -1 84
+ 3.031536 5 1 undefined 64 ------- 0 5.0 1.0 -1 91
- 3.031536 5 1 undefined 64 ------- 0 5.0 1.0 -1 91
r 3.032048 0 2 undefined 64 ------- 0 0.0 6.0 -1 80
+ 3.032048 2 6 undefined 64 ------- 0 0.0 6.0 -1 80
- 3.032048 2 6 undefined 64 ------- 0 0.0 6.0 -1 80
r 3.032048 1 3 undefined 64 ------- 0 1.0 7.0 -1 85
+ 3.032048 3 7 undefined 64 ------- 0 1.0 7.0 -1 85
- 3.032048 3 7 undefined 64 ------- 0 1.0 7.0 -1 85
r 3.03256 0 2 undefined 64 ------- 0 0.0 8.0 -1 81
+ 3.03256 2 8 undefined 64 ------- 0 0.0 8.0 -1 81
- 3.03256 2 8 undefined 64 ------- 0 0.0 8.0 -1 81
r 3.03256 1 3 undefined 64 ------- 0 1.0 9.0 -1 86
+ 3.03256 3 9 undefined 64 ------- 0 1.0 9.0 -1 86
- 3.03256 3 9 undefined 64 ------- 0 1.0 9.0 -1 86
r 3.033072 0 2 undefined 64 ------- 0 0.0 10.0 -1 82
+ 3.033072 2 10 undefined 64 ------- 0 0.0 10.0 -1 82
- 3.033072 2 10 undefined 64 ------- 0 0.0 10.0 -1 82
r 3.033072 1 3 undefined 64 ------- 0 1.0 11.0 -1 87
+ 3.033072 3 11 undefined 64 ------- 0 1.0 11.0 -1 87
- 3.033072 3 11 undefined 64 ------- 0 1.0 11.0 -1 87
r 3.042048 2 0 undefined 64 ------- 0 2.0 0.0 -1 88
r 3.042048 4 0 undefined 64 ------- 0 4.0 0.0 -1 89
r 3.042048 3 1 undefined 64 ------- 0 3.0 1.0 -1 90
r 3.042048 5 1 undefined 64 ------- 0 5.0 1.0 -1 91
r 3.04256 2 6 undefined 64 ------- 0 0.0 6.0 -1 80
+ 3.04256 6 2 undefined 64 ------- 0 6.0 0.0 -1 92
- 3.04256 6 2 undefined 64 ------- 0 6.0 0.0 -1 92
r 3.04256 3 7 undefined 64 ------- 0 1.0 7.0 -1 85
+ 3.04256 7 3 undefined 64 ------- 0 7.0 1.0 -1 93
- 3.04256 7 3 undefined 64 ------- 0 7.0 1.0 -1 93
r 3.043072 2 8 undefined 64 ------- 0 0.0 8.0 -1 81
+ 3.043072 8 2 undefined 64 ------- 0 8.0 0.0 -1 94
- 3.043072 8 2 undefined 64 ------- 0 8.0 0.0 -1 94
r 3.043072 3 9 undefined 64 ------- 0 1.0 9.0 -1 86
+ 3.043072 9 3 undefined 64 ------- 0 9.0 1.0 -1 95
- 3.043072 9 3 undefined 64 ------- 0 9.0 1.0 -1 95
r 3.043584 2 10 undefined 64 ------- 0 0.0 10.0 -1 82
+ 3.043584 10 2 undefined 64 ------- 0 10.0 0.0 -1 96
- 3.043584 10 2 undefined 64 ------- 0 10.0 0.0 -1 96
r 3.043584 3 11 undefined 64 ------- 0 1.0 11.0 -1 87
+ 3.043584 11 3 undefined 64 ------- 0 11.0 1.0 -1 97
- 3.043584 11 3 undefined 64 ------- 0 11.0 1.0 -1 97
r 3.053072 6 2 undefined 64 ------- 0 6.0 0.0 -1 92
+ 3.053072 2 0 undefined 64 ------- 0 6.0 0.0 -1 92
- 3.053072 2 0 undefined 64 ------- 0 6.0 0.0 -1 92
r 3.053072 7 3 undefined 64 ------- 0 7.0 1.0 -1 93
+ 3.053072 3 1 undefined 64 ------- 0 7.0 1.0 -1 93
- 3.053072 3 1 undefined 64 ------- 0 7.0 1.0 -1 93
r 3.053584 8 2 undefined 64 ------- 0 8.0 0.0 -1 94
+ 3.053584 2 0 undefined 64 ------- 0 8.0 0.0 -1 94
r 3.053584 9 3 undefined 64 ------- 0 9.0 1.0 -1 95
+ 3.053584 3 1 undefined 64 ------- 0 9.0 1.0 -1 95
- 3.053584 2 0 undefined 64 ------- 0 8.0 0.0 -1 94
- 3.053584 3 1 undefined 64 ------- 0 9.0 1.0 -1 95
r 3.054096 10 2 undefined 64 ------- 0 10.0 0.0 -1 96
+ 3.054096 2 0 undefined 64 ------- 0 10.0 0.0 -1 96
r 3.054096 11 3 undefined 64 ------- 0 11.0 1.0 -1 97
+ 3.054096 3 1 undefined 64 ------- 0 11.0 1.0 -1 97
- 3.054096 2 0 undefined 64 ------- 0 10.0 0.0 -1 96
- 3.054096 3 1 undefined 64 ------- 0 11.0 1.0 -1 97
r 3.063584 2 0 undefined 64 ------- 0 6.0 0.0 -1 92
r 3.063584 3 1 undefined 64 ------- 0 7.0 1.0 -1 93
r 3.064096 2 0 undefined 64 ------- 0 8.0 0.0 -1 94
r 3.064096 3 1 undefined 64 ------- 0 9.0 1.0 -1 95
r 3.064608 2 0 undefined 64 ------- 0 10.0 0.0 -1 96
+ 3.064608 0 2 undefined 896 ------- 0 0.0 2.0 -1 98
- 3.064608 0 2 undefined 896 ------- 0 0.0 2.0 -1 98
+ 3.064608 0 4 undefined 896 ------- 0 0.0 4.0 -1 99
- 3.064608 0 4 undefined 896 ------- 0 0.0 4.0 -1 99
+ 3.064608 0 2 undefined 896 ------- 0 0.0 6.0 -1 100
+ 3.064608 0 2 undefined 896 ------- 0 0.0 8.0 -1 101
+ 3.064608 0 2 undefined 896 ------- 0 0.0 10.0 -1 102
+ 3.064608 0 4 undefined 896 ------- 0 0.0 12.0 -1 103
r 3.064608 3 1 undefined 64 ------- 0 11.0 1.0 -1 97
+ 3.064608 1 3 undefined 896 ------- 0 1.0 3.0 -1 104
- 3.064608 1 3 undefined 896 ------- 0 1.0 3.0 -1 104
+ 3.064608 1 5 undefined 896 ------- 0 1.0 5.0 -1 105
- 3.064608 1 5 undefined 896 ------- 0 1.0 5.0 -1 105
+ 3.064608 1 3 undefined 896 ------- 0 1.0 7.0 -1 106
+ 3.064608 1 3 undefined 896 ------- 0 1.0 9.0 -1 107
+ 3.064608 1 3 undefined 896 ------- 0 1.0 11.0 -1 108
+ 3.064608 1 5 undefined 896 ------- 0 1.0 13.0 -1 109
- 3.071776 0 2 undefined 896 ------- 0 0.0 6.0 -1 100
- 3.071776 0 4 undefined 896 ------- 0 0.0 12.0 -1 103
- 3.071776 1 3 undefined 896 ------- 0 1.0 7.0 -1 106
- 3.071776 1 5 undefined 896 ------- 0 1.0 13.0 -1 109
- 3.078944 0 2 undefined 896 ------- 0 0.0 8.0 -1 101
- 3.078944 1 3 undefined 896 ------- 0 1.0 9.0 -1 107
r 3.081776 0 2 undefined 896 ------- 0 0.0 2.0 -1 98
r 3.081776 0 4 undefined 896 ------- 0 0.0 4.0 -1 99
r 3.081776 1 3 undefined 896 ------- 0 1.0 3.0 -1 104
r 3.081776 1 5 undefined 896 ------- 0 1.0 5.0 -1 105
- 3.086112 0 2 undefined 896 ------- 0 0.0 10.0 -1 102
- 3.086112 1 3 undefined 896 ------- 0 1.0 11.0 -1 108
r 3.088944 0 2 undefined 896 ------- 0 0.0 6.0 -1 100
+ 3.088944 2 6 undefined 896 ------- 0 0.0 6.0 -1 100
- 3.088944 2 6 undefined 896 ------- 0 0.0 6.0 -1 100
r 3.088944 0 4 undefined 896 ------- 0 0.0 12.0 -1 103
+ 3.088944 4 12 undefined 896 ------- 0 0.0 12.0 -1 103
- 3.088944 4 12 undefined 896 ------- 0 0.0 12.0 -1 103
r 3.088944 1 3 undefined 896 ------- 0 1.0 7.0 -1 106
+ 3.088944 3 7 undefined 896 ------- 0 1.0 7.0 -1 106
- 3.088944 3 7 undefined 896 ------- 0 1.0 7.0 -1 106
r 3.088944 1 5 undefined 896 ------- 0 1.0 13.0 -1 109
+ 3.088944 5 13 undefined 896 ------- 0 1.0 13.0 -1 109
- 3.088944 5 13 undefined 896 ------- 0 1.0 13.0 -1 109
r 3.096112 0 2 undefined 896 ------- 0 0.0 8.0 -1 101
+ 3.096112 2 8 undefined 896 ------- 0 0.0 8.0 -1 101
- 3.096112 2 8 undefined 896 ------- 0 0.0 8.0 -1 101
r 3.096112 1 3 undefined 896 ------- 0 1.0 9.0 -1 107
+ 3.096112 3 9 undefined 896 ------- 0 1.0 9.0 -1 107
- 3.096112 3 9 undefined 896 ------- 0 1.0 9.0 -1 107
r 3.10328 0 2 undefined 896 ------- 0 0.0 10.0 -1 102
+ 3.10328 2 10 undefined 896 ------- 0 0.0 10.0 -1 102
- 3.10328 2 10 undefined 896 ------- 0 0.0 10.0 -1 102
r 3.10328 1 3 undefined 896 ------- 0 1.0 11.0 -1 108
+ 3.10328 3 11 undefined 896 ------- 0 1.0 11.0 -1 108
- 3.10328 3 11 undefined 896 ------- 0 1.0 11.0 -1 108
r 3.106112 2 6 undefined 896 ------- 0 0.0 6.0 -1 100
r 3.106112 4 12 undefined 896 ------- 0 0.0 12.0 -1 103
r 3.106112 3 7 undefined 896 ------- 0 1.0 7.0 -1 106
r 3.106112 5 13 undefined 896 ------- 0 1.0 13.0 -1 109
r 3.11328 2 8 undefined 896 ------- 0 0.0 8.0 -1 101
r 3.11328 3 9 undefined 896 ------- 0 1.0 9.0 -1 107
r 3.120448 2 10 undefined 896 ------- 0 0.0 10.0 -1 102
r 3.120448 3 11 undefined 896 ------- 0 1.0 11.0 -1 108
+ 3.5 14 4 undefined 64 ------- 0 14.0 0.0 -1 110
- 3.5 14 4 undefined 64 ------- 0 14.0 0.0 -1 110
+ 3.5 15 5 undefined 64 ------- 0 15.0 1.0 -1 111
- 3.5 15 5 undefined 64 ------- 0 15.0 1.0 -1 111
r 3.510512 14 4 undefined 64 ------- 0 14.0 0.0 -1 110
+ 3.510512 4 0 undefined 64 ------- 0 14.0 0.0 -1 110
- 3.510512 4 0 undefined 64 ------- 0 14.0 0.0 -1 110
r 3.510512 15 5 undefined 64 ------- 0 15.0 1.0 -1 111
+ 3.510512 5 1 undefined 64 ------- 0 15.0 1.0 -1 111
- 3.510512 5 1 undefined 64 ------- 0 15.0 1.0 -1 111
r 3.521024 4 0 undefined 64 ------- 0 14.0 0.0 -1 110
+ 3.521024 0 2 undefined 64 ------- 0 0.0 2.0 -1 112
- 3.521024 0 2 undefined 64 ------- 0 0.0 2.0 -1 112
+ 3.521024 0 4 undefined 64 ------- 0 0.0 4.0 -1 113
- 3.521024 0 4 undefined 64 ------- 0 0.0 4.0 -1 113
+ 3.521024 0 2 undefined 64 ------- 0 0.0 6.0 -1 114
+ 3.521024 0 2 undefined 64 ------- 0 0.0 8.0 -1 115
+ 3.521024 0 2 undefined 64 ------- 0 0.0 10.0 -1 116
+ 3.521024 0 4 undefined 64 ------- 0 0.0 12.0 -1 117
r 3.521024 5 1 undefined 64 ------- 0 15.0 1.0 -1 111
+ 3.521024 1 3 undefined 64 ------- 0 1.0 3.0 -1 118
- 3.521024 1 3 undefined 64 ------- 0 1.0 3.0 -1 118
+ 3.521024 1 5 undefined 64 ------- 0 1.0 5.0 -1 119
- 3.521024 1 5 undefined 64 ------- 0 1.0 5.0 -1 119
+ 3.521024 1 3 undefined 64 ------- 0 1.0 7.0 -1 120
+ 3.521024 1 3 undefined 64 ------- 0 1.0 9.0 -1 121
+ 3.521024 1 3 undefined 64 ------- 0 1.0 11.0 -1 122
+ 3.521024 1 5 undefined 64 ------- 0 1.0 13.0 -1 123
- 3.521536 0 2 undefined 64 ------- 0 0.0 6.0 -1 114
- 3.521536 0 4 undefined 64 ------- 0 0.0 12.0 -1 117
- 3.521536 1 3 undefined 64 ------- 0 1.0 7.0 -1 120
- 3.521536 1 5 undefined 64 ------- 0 1.0 13.0 -1 123
- 3.522048 0 2 undefined 64 ------- 0 0.0 8.0 -1 115
- 3.522048 1 3 undefined 64 ------- 0 1.0 9.0 -1 121
- 3.52256 0 2 undefined 64 ------- 0 0.0 10.0 -1 116
- 3.52256 1 3 undefined 64 ------- 0 1.0 11.0 -1 122
r 3.531536 0 2 undefined 64 ------- 0 0.0 2.0 -1 112
+ 3.531536 2 0 undefined 64 ------- 0 2.0 0.0 -1 124
- 3.531536 2 0 undefined 64 ------- 0 2.0 0.0 -1 124
r 3.531536 0 4 undefined 64 ------- 0 0.0 4.0 -1 113
+ 3.531536 4 0 undefined 64 ------- 0 4.0 0.0 -1 125
- 3.531536 4 0 undefined 64 ------- 0 4.0 0.0 -1 125
r 3.531536 1 3 undefined 64 ------- 0 1.0 3.0 -1 118
+ 3.531536 3 1 undefined 64 ------- 0 3.0 1.0 -1 126
- 3.531536 3 1 undefined 64 ------- 0 3.0 1.0 -1 126
r 3.531536 1 5 undefined 64 ------- 0 1.0 5.0 -1 119
+ 3.531536 5 1 undefined 64 ------- 0 5.0 1.0 -1 127
- 3.531536 5 1 undefined 64 ------- 0 5.0 1.0 -1 127
r 3.532048 0 2 undefined 64 ------- 0 0.0 6.0 -1 114
+ 3.532048 2 6 undefined 64 ------- 0 0.0 6.0 -1 114
- 3.532048 2 6 undefined 64 ------- 0 0.0 6.0 -1 114
r 3.532048 0 4 undefined 64 ------- 0 0.0 12.0 -1 117
+ 3.532048 4 12 undefined 64 ------- 0 0.0 12.0 -1 117
- 3.532048 4 12 undefined 64 ------- 0 0.0 12.0 -1 117
r 3.532048 1 3 undefined 64 ------- 0 1.0 7.0 -1 120
+ 3.532048 3 7 undefined 64 ------- 0 1.0 7.0 -1 120
- 3.532048 3 7 undefined 64 ------- 0 1.0 7.0 -1 120
r 3.532048 1 5 undefined 64 ------- 0 1.0 13.0 -1 123
+ 3.532048 5 13 undefined 64 ------- 0 1.0 13.0 -1 123
- 3.532048 5 13 undefined 64 ------- 0 1.0 13.0 -1 123
r 3.53256 0 2 undefined 64 ------- 0 0.0 8.0 -1 115
+ 3.53256 2 8 undefined 64 ------- 0 0.0 8.0 -1 115
- 3.53256 2 8 undefined 64 ------- 0 0.0 8.0 -1 115
r 3.53256 1 3 undefined 64 ------- 0 1.0 9.0 -1 121
+ 3.53256 3 9 undefined 64 ------- 0 1.0 9.0 -1 121
- 3.53256 3 9 undefined 64 ------- 0 1.0 9.0 -1 121
r 3.533072 0 2 undefined 64 ------- 0 0.0 10.0 -1 116
+ 3.533072 2 10 undefined 64 ------- 0 0.0 10.0 -1 116
- 3.533072 2 10 undefined 64 ------- 0 0.0 10.0 -1 116
r 3.533072 1 3 undefined 64 ------- 0 1.0 11.0 -1 122
+ 3.533072 3 11 undefined 64 ------- 0 1.0 11.0 -1 122
- 3.533072 3 11 undefined 64 ------- 0 1.0 11.0 -1 122
r 3.542048 2 0 undefined 64 ------- 0 2.0 0.0 -1 124
r 3.542048 4 0 undefined 64 ------- 0 4.0 0.0 -1 125
r 3.542048 3 1 undefined 64 ------- 0 3.0 1.0 -1 126
r 3.542048 5 1 undefined 64 ------- 0 5.0 1.0 -1 127
r 3.54256 2 6 undefined 64 ------- 0 0.0 6.0 -1 114
+ 3.54256 6 2 undefined 64 ------- 0 6.0 0.0 -1 128
- 3.54256 6 2 undefined 64 ------- 0 6.0 0.0 -1 128
r 3.54256 4 12 undefined 64 ------- 0 0.0 12.0 -1 117
+ 3.54256 12 4 undefined 64 ------- 0 12.0 0.0 -1 129
- 3.54256 12 4 undefined 64 ------- 0 12.0 0.0 -1 129
r 3.54256 3 7 undefined 64 ------- 0 1.0 7.0 -1 120
+ 3.54256 7 3 undefined 64 ------- 0 7.0 1.0 -1 130
- 3.54256 7 3 undefined 64 ------- 0 7.0 1.0 -1 130
r 3.54256 5 13 undefined 64 ------- 0 1.0 13.0 -1 123