+ 0.5 2 0 undefined 64 ------- 0 2.0 0.0 -1 0
- 0.5 2 0 undefined 64 ------- 0 2.0 0.0 -1 0
r 0.510512 2 0 undefined 64 ------- 0 2.0 0.0 -1 0
+ 0.510512 0 2 undefined 256 ------- 0 0.0 2.0 -1 1
- 0.510512 0 2 undefined 256 ------- 0 0.0 2.0 -1 1
r 0.52256 0 2 undefined 256 ------- 0 0.0 2.0 -1 1
+ 1 4 0 undefined 64 ------- 0 4.0 0.0 -1 2
- 1 4 0 undefined 64 ------- 0 4.0 0.0 -1 2
r 1.010512 4 0 undefined 64 ------- 0 4.0 0.0 -1 2
+ 1.010512 0 2 undefined 384 ------- 0 0.0 2.0 -1 3
- 1.010512 0 2 undefined 384 ------- 0 0.0 2.0 -1 3
+ 1.010512 0 4 undefined 384 ------- 0 0.0 4.0 -1 4
- 1.010512 0 4 undefined 384 ------- 0 0.0 4.0 -1 4
r 1.023584 0 2 undefined 384 ------- 0 0.0 2.0 -1 3
r 1.023584 0 4 undefined 384 ------- 0 0.0 4.0 -1 4
+ 1.5 6 2 undefined 64 ------- 0 6.0 0.0 -1 5
- 1.5 6 2 undefined 64 ------- 0 6.0 0.0 -1 5
r 1.510512 6 2 undefined 64 ------- 0 6.0 0.0 -1 5
+ 1.510512 2 0 undefined 64 ------- 0 6.0 0.0 -1 5
- 1.510512 2 0 undefined 64 ------- 0 6.0 0.0 -1 5
r 1.521024 2 0 undefined 64 ------- 0 6.0 0.0 -1 5
+ 1.521024 0 2 undefined 64 ------- 0 0.0 2.0 -1 6
- 1.521024 0 2 undefined 64 ------- 0 0.0 2.0 -1 6
+ 1.521024 0 4 undefined 64 ------- 0 0.0 4.0 -1 7
- 1.521024 0 4 undefined 64 ------- 0 0.0 4.0 -1 7
r 1.531536 0 2 undefined 64 ------- 0 0.0 2.0 -1 6
+ 1.531536 2 0 undefined 64 ------- 0 2.0 0.0 -1 8
- 1.531536 2 0 undefined 64 ------- 0 2.0 0.0 -1 8
r 1.531536 0 4 undefined 64 ------- 0 0.0 4.0 -1 7
+ 1.531536 4 0 undefined 64 ------- 0 4.0 0.0 -1 9
- 1.531536 4 0 undefined 64 ------- 0 4.0 0.0 -1 9
r 1.542048 2 0 undefined 64 ------- 0 2.0 0.0 -1 8
r 1.542048 4 0 undefined 64 ------- 0 4.0 0.0 -1 9
+ 1.542048 0 2 undefined 512 ------- 0 0.0 2.0 -1 10
- 1.542048 0 2 undefined 512 ------- 0 0.0 2.0 -1 10
+ 1.542048 0 4 undefined 512 ------- 0 0.0 4.0 -1 11
- 1.542048 0 4 undefined 512 ------- 0 0.0 4.0 -1 11
+ 1.542048 0 2 undefined 512 ------- 0 0.0 6.0 -1 12
- 1.546144 0 2 undefined 512 ------- 0 0.0 6.0 -1 12
r 1.556144 0 2 undefined 512 ------- 0 0.0 2.0 -1 10
r 1.556144 0 4 undefined 512 ------- 0 0.0 4.0 -1 11
r 1.56024 0 2 undefined 512 ------- 0 0.0 6.0 -1 12
+ 1.56024 2 6 undefined 512 ------- 0 0.0 6.0 -1 12
- 1.56024 2 6 undefined 512 ------- 0 0.0 6.0 -1 12
r 1.574336 2 6 undefined 512 ------- 0 0.0 6.0 -1 12
+ 2 8 2 undefined 64 ------- 0 8.0 0.0 -1 13
- 2 8 2 undefined 64 ------- 0 8.0 0.0 -1 13
r 2.010512 8 2 undefined 64 ------- 0 8.0 0.0 -1 13
+ 2.010512 2 0 undefined 64 ------- 0 8.0 0.0 -1 13
- 2.010512 2 0 undefined 64 ------- 0 8.0 0.0 -1 13
r 2.021024 2 0 undefined 64 ------- 0 8.0 0.0 -1 13
+ 2.021024 0 2 undefined 64 ------- 0 0.0 2.0 -1 14
- 2.021024 0 2 undefined 64 ------- 0 0.0 2.0 -1 14
+ 2.021024 0 4 undefined 64 ------- 0 0.0 4.0 -1 15
- 2.021024 0 4 undefined 64 ------- 0 0.0 4.0 -1 15
+ 2.021024 0 2 undefined 64 ------- 0 0.0 6.0 -1 16
- 2.021536 0 2 undefined 64 ------- 0 0.0 6.0 -1 16
r 2.031536 0 2 undefined 64 ------- 0 0.0 2.0 -1 14
+ 2.031536 2 0 undefined 64 ------- 0 2.0 0.0 -1 17
- 2.031536 2 0 undefined 64 ------- 0 2.0 0.0 -1 17
r 2.031536 0 4 undefined 64 ------- 0 0.0 4.0 -1 15
+ 2.031536 4 0 undefined 64 ------- 0 4.0 0.0 -1 18
- 2.031536 4 0 undefined 64 ------- 0 4.0 0.0 -1 18
r 2.032048 0 2 undefined 64 ------- 0 0.0 6.0 -1 16
+ 2.032048 2 6 undefined 64 ------- 0 0.0 6.0 -1 16
- 2.032048 2 6 undefined 64 ------- 0 0.0 6.0 -1 16
r 2.042048 2 0 undefined 64 ------- 0 2.0 0.0 -1 17
r 2.042048 4 0 undefined 64 ------- 0 4.0 0.0 -1 18
r 2.04256 2 6 undefined 64 ------- 0 0.0 6.0 -1 16
+ 2.04256 6 2 undefined 64 ------- 0 6.0 0.0 -1 19
- 2.04256 6 2 undefined 64 ------- 0 6.0 0.0 -1 19
r 2.053072 6 2 undefined 64 ------- 0 6.0 0.0 -1 19
+ 2.053072 2 0 undefined 64 ------- 0 6.0 0.0 -1 19
- 2.053072 2 0 undefined 64 ------- 0 6.0 0.0 -1 19
r 2.063584 2 0 undefined 64 ------- 0 6.0 0.0 -1 19
+ 2.063584 0 2 undefined 640 ------- 0 0.0 2.0 -1 20
- 2.063584 0 2 undefined 640 ------- 0 0.0 2.0 -1 20
+ 2.063584 0 4 undefined 640 ------- 0 0.0 4.0 -1 21
- 2.063584 0 4 undefined 640 ------- 0 0.0 4.0 -1 21
+ 2.063584 0 2 undefined 640 ------- 0 0.0 6.0 -1 22
+ 2.063584 0 2 undefined 640 ------- 0 0.0 8.0 -1 23
- 2.068704 0 2 undefined 640 ------- 0 0.0 6.0 -1 22
- 2.073824 0 2 undefined 640 ------- 0 0.0 8.0 -1 23
r 2.078704 0 2 undefined 640 ------- 0 0.0 2.0 -1 20
r 2.078704 0 4 undefined 640 ------- 0 0.0 4.0 -1 21
r 2.083824 0 2 undefined 640 ------- 0 0.0 6.0 -1 22
+ 2.083824 2 6 undefined 640 ------- 0 0.0 6.0 -1 22
- 2.083824 2 6 undefined 640 ------- 0 0.0 6.0 -1 22
r 2.088944 0 2 undefined 640 ------- 0 0.0 8.0 -1 23
+ 2.088944 2 8 undefined 640 ------- 0 0.0 8.0 -1 23
- 2.088944 2 8 undefined 640 ------- 0 0.0 8.0 -1 23
r 2.098944 2 6 undefined 640 ------- 0 0.0 6.0 -1 22
r 2.104064 2 8 undefined 640 ------- 0 0.0 8.0 -1 23
+ 2.5 10 2 undefined 64 ------- 0 10.0 0.0 -1 24
- 2.5 10 2 undefined 64 ------- 0 10.0 0.0 -1 24
r 2.510512 10 2 undefined 64 ------- 0 10.0 0.0 -1 24
+ 2.510512 2 0 undefined 64 ------- 0 10.0 0.0 -1 24
- 2.510512 2 0 undefined 64 ------- 0 10.0 0.0 -1 24
r 2.521024 2 0 undefined 64 ------- 0 10.0 0.0 -1 24
+ 2.521024 0 2 undefined 64 ------- 0 0.0 2.0 -1 25
- 2.521024 0 2 undefined 64 ------- 0 0.0 2.0 -1 25
+ 2.521024 0 4 undefined 64 ------- 0 0.0 4.0 -1 26
- 2.521024 0 4 undefined 64 ------- 0 0.0 4.0 -1 26
+ 2.521024 0 2 undefined 64 ------- 0 0.0 6.0 -1 27
+ 2.521024 0 2 undefined 64 ------- 0 0.0 8.0 -1 28
- 2.521536 0 2 undefined 64 ------- 0 0.0 6.0 -1 27
- 2.522048 0 2 undefined 64 ------- 0 0.0 8.0 -1 28
r 2.531536 0 2 undefined 64 ------- 0 0.0 2.0 -1 25
+ 2.531536 2 0 undefined 64 ------- 0 2.0 0.0 -1 29
- 2.531536 2 0 undefined 64 ------- 0 2.0 0.0 -1 29
r 2.531536 0 4 undefined 64 ------- 0 0.0 4.0 -1 26
+ 2.531536 4 0 undefined 64 ------- 0 4.0 0.0 -1 30
- 2.531536 4 0 undefined 64 ------- 0 4.0 0.0 -1 30
r 2.532048 0 2 undefined 64 ------- 0 0.0 6.0 -1 27
+ 2.532048 2 6 undefined 64 ------- 0 0.0 6.0 -1 27
- 2.532048 2 6 undefined 64 ------- 0 0.0 6.0 -1 27
r 2.53256 0 2 undefined 64 ------- 0 0.0 8.0 -1 28
+ 2.53256 2 8 undefined 64 ------- 0 0.0 8.0 -1 28
- 2.53256 2 8 undefined 64 ------- 0 0.0 8.0 -1 28
r 2.542048 2 0 undefined 64 ------- 0 2.0 0.0 -1 29
r 2.542048 4 0 undefined 64 ------- 0 4.0 0.0 -1 30
r 2.54256 2 6 undefined 64 ------- 0 0.0 6.0 -1 27
+ 2.54256 6 2 undefined 64 ------- 0 6.0 0.0 -1 31
- 2.54256 6 2 undefined 64 ------- 0 6.0 0.0 -1 31
r 2.543072 2 8 undefined 64 ------- 0 0.0 8.0 -1 28
+ 2.543072 8 2 undefined 64 ------- 0 8.0 0.0 -1 32
- 2.543072 8 2 undefined 64 ------- 0 8.0 0.0 -1 32
r 2.553072 6 2 undefined 64 ------- 0 6.0 0.0 -1 31
+ 2.553072 2 0 undefined 64 ------- 0 6.0 0.0 -1 31
- 2.553072 2 0 undefined 64 ------- 0 6.0 0.0 -1 31
r 2.553584 8 2 undefined 64 ------- 0 8.0 0.0 -1 32
+ 2.553584 2 0 undefined 64 ------- 0 8.0 0.0 -1 32
- 2.553584 2 0 undefined 64 ------- 0 8.0 0.0 -1 32
r 2.563584 2 0 undefined 64 ------- 0 6.0 0.0 -1 31
r 2.564096 2 0 undefined 64 ------- 0 8.0 0.0 -1 32
+ 2.564096 0 2 undefined 768 ------- 0 0.0 2.0 -1 33
- 2.564096 0 2 undefined 768 ------- 0 0.0 2.0 -1 33
+ 2.564096 0 4 undefined 768 ------- 0 0.0 4.0 -1 34
- 2.564096 0 4 undefined 768 ------- 0 0.0 4.0 -1 34
+ 2.564096 0 2 undefined 768 ------- 0 0.0 6.0 -1 35
+ 2.564096 0 2 undefined 768 ------- 0 0.0 8.0 -1 36
+ 2.564096 0 2 undefined 768 ------- 0 0.0 10.0 -1 37
- 2.57024 0 2 undefined 768 ------- 0 0.0 6.0 -1 35
- 2.576384 0 2 undefined 768 ------- 0 0.0 8.0 -1 36
r 2.58024 0 2 undefined 768 ------- 0 0.0 2.0 -1 33
r 2.58024 0 4 undefined 768 ------- 0 0.0 4.0 -1 34
- 2.582528 0 2 undefined 768 ------- 0 0.0 10.0 -1 37
r 2.586384 0 2 undefined 768 ------- 0 0.0 6.0 -1 35
+ 2.586384 2 6 undefined 768 ------- 0 0.0 6.0 -1 35
- 2.586384 2 6 undefined 768 ------- 0 0.0 6.0 -1 35
r 2.592528 0 2 undefined 768 ------- 0 0.0 8.0 -1 36
+ 2.592528 2 8 undefined 768 ------- 0 0.0 8.0 -1 36
- 2.592528 2 8 undefined 768 ------- 0 0.0 8.0 -1 36
r 2.598672 0 2 undefined 768 ------- 0 0.0 10.0 -1 37
+ 2.598672 2 10 undefined 768 ------- 0 0.0 10.0 -1 37
- 2.598672 2 10 undefined 768 ------- 0 0.0 10.0 -1 37
r 2.602528 2 6 undefined 768 ------- 0 0.0 6.0 -1 35
r 2.608672 2 8 undefined 768 ------- 0 0.0 8.0 -1 36
r 2.614816 2 10 undefined 768 ------- 0 0.0 10.0 -1 37
+ 3 12 2 undefined 64 ------- 0 12.0 0.0 -1 38
- 3 12 2 undefined 64 ------- 0 12.0 0.0 -1 38
r 3.010512 12 2 undefined 64 ------- 0 12.0 0.0 -1 38
+ 3.010512 2 0 undefined 64 ------- 0 12.0 0.0 -1 38
- 3.010512 2 0 undefined 64 ------- 0 12.0 0.0 -1 38
r 3.021024 2 0 undefined 64 ------- 0 12.0 0.0 -1 38
+ 3.021024 0 2 undefined 64 ------- 0 0.0 2.0 -1 39
- 3.021024 0 2 undefined 64 ------- 0 0.0 2.0 -1 39
+ 3.021024 0 4 undefined 64 ------- 0 0.0 4.0 -1 40
- 3.021024 0 4 undefined 64 ------- 0 0.0 4.0 -1 40
+ 3.021024 0 2 undefined 64 ------- 0 0.0 6.0 -1 41
+ 3.021024 0 2 undefined 64 ------- 0 0.0 8.0 -1 42
+ 3.021024 0 2 undefined 64 ------- 0 0.0 10.0 -1 43
- 3.021536 0 2 undefined 64 ------- 0 0.0 6.0 -1 41
- 3.022048 0 2 undefined 64 ------- 0 0.0 8.0 -1 42
- 3.02256 0 2 undefined 64 ------- 0 0.0 10.0 -1 43
r 3.031536 0 2 undefined 64 ------- 0 0.0 2.0 -1 39
+ 3.031536 2 0 undefined 64 ------- 0 2.0 0.0 -1 44
- 3.031536 2 0 undefined 64 ------- 0 2.0 0.0 -1 44
r 3.031536 0 4 undefined 64 ------- 0 0.0 4.0 -1 40
+ 3.031536 4 0 undefined 64 ------- 0 4.0 0.0 -1 45
- 3.031536 4 0 undefined 64 ------- 0 4.0 0.0 -1 45
r 3.032048 0 2 undefined 64 ------- 0 0.0 6.0 -1 41
+ 3.032048 2 6 undefined 64 ------- 0 0.0 6.0 -1 41
- 3.032048 2 6 undefined 64 ------- 0 0.0 6.0 -1 41
r 3.03256 0 2 undefined 64 ------- 0 0.0 8.0 -1 42
+ 3.03256 2 8 undefined 64 ------- 0 0.0 8.0 -1 42
- 3.03256 2 8 undefined 64 ------- 0 0.0 8.0 -1 42
r 3.033072 0 2 undefined 64 ------- 0 0.0 10.0 -1 43
+ 3.033072 2 10 undefined 64 ------- 0 0.0 10.0 -1 43
- 3.033072 2 10 undefined 64 ------- 0 0.0 10.0 -1 43
r 3.042048 2 0 undefined 64 ------- 0 2.0 0.0 -1 44
r 3.042048 4 0 undefined 64 ------- 0 4.0 0.0 -1 45
r 3.04256 2 6 undefined 64 ------- 0 0.0 6.0 -1 41
+ 3.04256 6 2 undefined 64 ------- 0 6.0 0.0 -1 46
- 3.04256 6 2 undefined 64 ------- 0 6.0 0.0 -1 46
r 3.043072 2 8 undefined 64 ------- 0 0.0 8.0 -1 42
+ 3.043072 8 2 undefined 64 ------- 0 8.0 0.0 -1 47
- 3.043072 8 2 undefined 64 ------- 0 8.0 0.0 -1 47
r 3.043584 2 10 undefined 64 ------- 0 0.0 10.0 -1 43
+ 3.043584 10 2 undefined 64 ------- 0 10.0 0.0 -1 48
- 3.043584 10 2 undefined 64 ------- 0 10.0 0.0 -1 48
r 3.053072 6 2 undefined 64 ------- 0 6.0 0.0 -1 46
+ 3.053072 2 0 undefined 64 ------- 0 6.0 0.0 -1 46
- 3.053072 2 0 undefined 64 ------- 0 6.0 0.0 -1 46
r 3.053584 8 2 undefined 64 ------- 0 8.0 0.0 -1 47
+ 3.053584 2 0 undefined 64 ------- 0 8.0 0.0 -1 47
- 3.053584 2 0 undefined 64 ------- 0 8.0 0.0 -1 47
r 3.054096 10 2 undefined 64 ------- 0 10.0 0.0 -1 48
+ 3.054096 2 0 undefined 64 ------- 0 10.0 0.0 -1 48
- 3.054096 2 0 undefined 64 ------- 0 10.0 0.0 -1 48
r 3.063584 2 0 undefined 64 ------- 0 6.0 0.0 -1 46
r 3.064096 2 0 undefined 64 ------- 0 8.0 0.0 -1 47
r 3.064608 2 0 undefined 64 ------- 0 10.0 0.0 -1 48
+ 3.064608 0 2 undefined 896 ------- 0 0.0 2.0 -1 49
- 3.064608 0 2 undefined 896 ------- 0 0.0 2.0 -1 49
+ 3.064608 0 4 undefined 896 ------- 0 0.0 4.0 -1 50
- 3.064608 0 4 undefined 896 ------- 0 0.0 4.0 -1 50
+ 3.064608 0 2 undefined 896 ------- 0 0.0 6.0 -1 51
+ 3.064608 0 2 undefined 896 ------- 0 0.0 8.0 -1 52
+ 3.064608 0 2 undefined 896 ------- 0 0.0 10.0 -1 53
+ 3.064608 0 2 undefined 896 ------- 0 0.0 12.0 -1 54
- 3.071776 0 2 undefined 896 ------- 0 0.0 6.0 -1 51
- 3.078944 0 2 undefined 896 ------- 0 0.0 8.0 -1 52
r 3.081776 0 2 undefined 896 ------- 0 0.0 2.0 -1 49
r 3.081776 0 4 undefined 896 ------- 0 0.0 4.0 -1 50
- 3.086112 0 2 undefined 896 ------- 0 0.0 10.0 -1 53
r 3.088944 0 2 undefined 896 ------- 0 0.0 6.0 -1 51
+ 3.088944 2 6 undefined 896 ------- 0 0.0 6.0 -1 51
- 3.088944 2 6 undefined 896 ------- 0 0.0 6.0 -1 51
- 3.09328 0 2 undefined 896 ------- 0 0.0 12.0 -1 54
r 3.096112 0 2 undefined 896 ------- 0 0.0 8.0 -1 52
+ 3.096112 2 8 undefined 896 ------- 0 0.0 8.0 -1 52
- 3.096112 2 8 undefined 896 ------- 0 0.0 8.0 -1 52
r 3.10328 0 2 undefined 896 ------- 0 0.0 10.0 -1 53
+ 3.10328 2 10 undefined 896 ------- 0 0.0 10.0 -1 53
- 3.10328 2 10 undefined 896 ------- 0 0.0 10.0 -1 53
r 3.106112 2 6 undefined 896 ------- 0 0.0 6.0 -1 51
r 3.110448 0 2 undefined 896 ------- 0 0.0 12.0 -1 54
+ 3.110448 2 12 undefined 896 ------- 0 0.0 12.0 -1 54
- 3.110448 2 12 undefined 896 ------- 0 0.0 12.0 -1 54
r 3.11328 2 8 undefined 896 ------- 0 0.0 8.0 -1 52
r 3.120448 2 10 undefined 896 ------- 0 0.0 10.0 -1 53
r 3.127616 2 12 undefined 896 ------- 0 0.0 12.0 -1 54
+ 3.5 14 2 undefined 64 ------- 0 14.0 0.0 -1 55
- 3.5 14 2 undefined 64 ------- 0 14.0 0.0 -1 55
r 3.510512 14 2 undefined 64 ------- 0 14.0 0.0 -1 55
+ 3.510512 2 0 undefined 64 ------- 0 14.0 0.0 -1 55
- 3.510512 2 0 undefined 64 ------- 0 14.0 0.0 -1 55
r 3.521024 2 0 undefined 64 ------- 0 14.0 0.0 -1 55
+ 3.521024 0 2 undefined 64 ------- 0 0.0 2.0 -1 56
- 3.521024 0 2 undefined 64 ------- 0 0.0 2.0 -1 56
+ 3.521024 0 4 undefined 64 ------- 0 0.0 4.0 -1 57
- 3.521024 0 4 undefined 64 ------- 0 0.0 4.0 -1 57
+ 3.521024 0 2 undefined 64 ------- 0 0.0 6.0 -1 58
+ 3.521024 0 2 undefined 64 ------- 0 0.0 8.0 -1 59
+ 3.521024 0 2 undefined 64 ------- 0 0.0 10.0 -1 60
+ 3.521024 0 2 undefined 64 ------- 0 0.0 12.0 -1 61
- 3.521536 0 2 undefined 64 ------- 0 0.0 6.0 -1 58
- 3.522048 0 2 undefined 64 ------- 0 0.0 8.0 -1 59
- 3.52256 0 2 undefined 64 ------- 0 0.0 10.0 -1 60
- 3.523072 0 2 undefined 64 ------- 0 0.0 12.0 -1 61
r 3.531536 0 2 undefined 64 ------- 0 0.0 2.0 -1 56
+ 3.531536 2 0 undefined 64 ------- 0 2.0 0.0 -1 62
- 3.531536 2 0 undefined 64 ------- 0 2.0 0.0 -1 62
r 3.531536 0 4 undefined 64 ------- 0 0.0 4.0 -1 57
+ 3.531536 4 0 undefined 64 ------- 0 4.0 0.0 -1 63
- 3.531536 4 0 undefined 64 ------- 0 4.0 0.0 -1 63
r 3.532048 0 2 undefined 64 ------- 0 0.0 6.0 -1 58
+ 3.532048 2 6 undefined 64 ------- 0 0.0 6.0 -1 58
- 3.532048 2 6 undefined 64 ------- 0 0.0 6.0 -1 58
r 3.53256 0 2 undefined 64 ------- 0 0.0 8.0 -1 59
+ 3.53256 2 8 undefined 64 ------- 0 0.0 8.0 -1 59
- 3.53256 2 8 undefined 64 ------- 0 0.0 8.0 -1 59
r 3.533072 0 2 undefined 64 ------- 0 0.0 10.0 -1 60
+ 3.533072 2 10 undefined 64 ------- 0 0.0 10.0 -1 60
- 3.533072 2 10 undefined 64 ------- 0 0.0 10.0 -1 60
r 3.533584 0 2 undefined 64 ------- 0 0.0 12.0 -1 61
+ 3.533584 2 12 undefined 64 ------- 0 0.0 12.0 -1 61
- 3.533584 2 12 undefined 64 ------- 0 0.0 12.0 -1 61
r 3.542048 2 0 undefined 64 ------- 0 2.0 0.0 -1 62
r 3.542048 4 0 undefined 64 ------- 0 4.0 0.0 -1 63
r 3.54256 2 6 undefined 64 ------- 0 0.0 6.0 -1 58
+ 3.54256 6 2 undefined 64 ------- 0 6.0 0.0 -1 64
- 3.54256 6 2 undefined 64 ------- 0 6.0 0.0 -1 64
r 3.543072 2 8 undefined 64 ------- 0 0.0 8.0 -1 59
+ 3.543072 8 2 undefined 64 ------- 0 8.0 0.0 -1 65
- 3.543072 8 2 undefined 64 ------- 0 8.0 0.0 -1 65
r 3.543584 2 10 undefined 64 ------- 0 0.0 10.0 -1 60
+ 3.543584 10 2 undefined 64 ------- 0 10.0 0.0 -1 66
- 3.543584 10 2 undefined 64 ------- 0 10.0 0.0 -1 66
r 3.544096 2 12 undefined 64 ------- 0 0.0 12.0 -1 61
+ 3.544096 12 2 undefined 64 ------- 0 12.0 0.0 -1 67
- 3.544096 12 2 undefined 64 ------- 0 12.0 0.0 -1 67
r 3.553072 6 2 undefined 64 ------- 0 6.0 0.0 -1 64
+ 3.553072 2 0 undefined 64 ------- 0 6.0 0.0 -1 64
- 3.553072 2 0 undefined 64 ------- 0 6.0 0.0 -1 64
r 3.553584 8 2 undefined 64 ------- 0 8.0 0.0 -1 65
+ 3.553584 2 0 undefined 64 ------- 0 8.0 0.0 -1 65
- 3.553584 2 0 undefined 64 ------- 0 8.0 0.0 -1 65
r 3.554096 10 2 undefined 64 ------- 0 10.0 0.0 -1 66
+ 3.554096 2 0 undefined 64 ------- 0 10.0 0.0 -1 66
- 3.554096 2 0 undefined 64 ------- 0 10.0 0.0 -1 66
r 3.554608 12 2 undefined 64 ------- 0 12.0 0.0 -1 67
+ 3.554608 2 0 undefined 64 ------- 0 12.0 0.0 -1 67
- 3.554608 2 0 undefined 64 ------- 0 12.0 0.0 -1 67
r 3.563584 2 0 undefined 64 ------- 0 6.0 0.0 -1 64
r 3.564096 2 0 undefined 64 ------- 0 8.0 0.0 -1 65
r 3.564608 2 0 undefined 64 ------- 0 10.0 0.0 -1 66
r 3.56512 2 0 undefined 64 ------- 0 12.0 0.0 -1 67
+ 3.56512 0 2 undefined 1024 ------- 0 0.0 2.0 -1 68
- 3.56512 0 2 undefined 1024 ------- 0 0.0 2.0 -1 68
+ 3.56512 0 4 undefined 1024 ------- 0 0.0 4.0 -1 69
- 3.56512 0 4 undefined 1024 ------- 0 0.0 4.0 -1 69
+ 3.56512 0 2 undefined 1024 ------- 0 0.0 6.0 -1 70
+ 3.56512 0 2 undefined 1024 ------- 0 0.0 8.0 -1 71
+ 3.56512 0 2 undefined 1024 ------- 0 0.0 10.0 -1 72
+ 3.56512 0 2 undefined 1024 ------- 0 0.0 12.0 -1 73
+ 3.56512 0 2 undefined 1024 ------- 0 0.0 14.0 -1 74
- 3.573312 0 2 undefined 1024 ------- 0 0.0 6.0 -1 70
- 3.581504 0 2 undefined 1024 ------- 0 0.0 8.0 -1 71
r 3.583312 0 2 undefined 1024 ------- 0 0.0 2.0 -1 68
r 3.583312 0 4 undefined 1024 ------- 0 0.0 4.0 -1 69
- 3.589696 0 2 undefined 1024 ------- 0 0.0 10.0 -1 72
r 3.591504 0 2 undefined 1024 ------- 0 0.0 6.0 -1 70
+ 3.591504 2 6 undefined 1024 ------- 0 0.0 6.0 -1 70
- 3.591504 2 6 undefined 1024 ------- 0 0.0 6.0 -1 70
- 3.597888 0 2 undefined 1024 ------- 0 0.0 12.0 -1 73
r 3.599696 0 2 undefined 1024 ------- 0 0.0 8.0 -1 71
+ 3.599696 2 8 undefined 1024 ------- 0 0.0 8.0 -1 71
- 3.599696 2 8 undefined 1024 ------- 0 0.0 8.0 -1 71
- 3.60608 0 2 undefined 1024 ------- 0 0.0 14.0 -1 74
r 3.607888 0 2 undefined 1024 ------- 0 0.0 10.0 -1 72
+ 3.607888 2 10 undefined 1024 ------- 0 0.0 10.0 -1 72
- 3.607888 2 10 undefined 1024 ------- 0 0.0 10.0 -1 72
r 3.609696 2 6 undefined 1024 ------- 0 0.0 6.0 -1 70
r 3.61608 0 2 undefined 1024 ------- 0 0.0 12.0 -1 73
+ 3.61608 2 12 undefined 1024 ------- 0 0.0 12.0 -1 73
- 3.61608 2 12 undefined 1024 ------- 0 0.0 12.0 -1 73
r 3.617888 2 8 undefined 1024 ------- 0 0.0 8.0 -1 71
r 3.624272 0 2 undefined 1024 ------- 0 0.0 14.0 -1 74
+ 3.624272 2 14 undefined 1024 ------- 0 0.0 14.0 -1 74
- 3.624272 2 14 undefined 1024 ------- 0 0.0 14.0 -1 74
r 3.62608 2 10 undefined 1024 ------- 0 0.0 10.0 -1 72
r 3.634272 2 12 undefined 1024 ------- 0 0.0 12.0 -1 73
r 3.642464 2 14 undefined 1024 ------- 0 0.0 14.0 -1 74
+ 4 16 2 undefined 64 ------- 0 16.0 0.0 -1 75
- 4 16 2 undefined 64 ------- 0 16.0 0.0 -1 75
r 4.010512 16 2 undefined 64 ------- 0 16.0 0.0 -1 75
+ 4.010512 2 0 undefined 64 ------- 0 16.0 0.0 -1 75
- 4.010512 2 0 undefined 64 ------- 0 16.0 0.0 -1 75
r 4.021024 2 0 undefined 64 ------- 0 16.0 0.0 -1 75
+ 4.021024 0 2 undefined 64 ------- 0 0.0 2.0 -1 76
- 4.021024 0 2 undefined 64 ------- 0 0.0 2.0 -1 76
+ 4.021024 0 4 undefined 64 ------- 0 0.0 4.0 -1 77
- 4.021024 0 4 undefined 64 ------- 0 0.0 4.0 -1 77
+ 4.021024 0 2 undefined 64 ------- 0 0.0 6.0 -1 78
+ 4.021024 0 2 undefined 64 ------- 0 0.0 8.0 -1 79
+ 4.021024 0 2 undefined 64 ------- 0 0.0 10.0 -1 80
+ 4.021024 0 2 undefined 64 ------- 0 0.0 12.0 -1 81
+ 4.021024 0 2 undefined 64 ------- 0 0.0 14.0 -1 82
- 4.021536 0 2 undefined 64 ------- 0 0.0 6.0 -1 78
- 4.022048 0 2 undefined 64 ------- 0 0.0 8.0 -1 79
- 4.02256 0 2 undefined 64 ------- 0 0.0 10.0 -1 80
- 4.023072 0 2 undefined 64 ------- 0 0.0 12.0 -1 81
- 4.023584 0 2 undefined 64 ------- 0 0.0 14.0 -1 82
r 4.031536 0 2 undefined 64 ------- 0 0.0 2.0 -1 76
+ 4.031536 2 0 undefined 64 ------- 0 2.0 0.0 -1 83
- 4.031536 2 0 undefined 64 ------- 0 2.0 0.0 -1 83
r 4.031536 0 4 undefined 64 ------- 0 0.0 4.0 -1 77
+ 4.031536 4 0 undefined 64 ------- 0 4.0 0.0 -1 84
- 4.031536 4 0 undefined 64 ------- 0 4.0 0.0 -1 84
r 4.032048 0 2 undefined 64 ------- 0 0.0 6.0 -1 78
+ 4.032048 2 6 undefined 64 ------- 0 0.0 6.0 -1 78
- 4.032048 2 6 undefined 64 ------- 0 0.0 6.0 -1 78
r 4.03256 0 2 undefined 64 ------- 0 0.0 8.0 -1 79
+ 4.03256 2 8 undefined 64 ------- 0 0.0 8.0 -1 79
- 4.03256 2 8 undefined 64 ------- 0 0.0 8.0 -1 79
r 4.033072 0 2 undefined 64 ------- 0 0.0 10.0 -1 80
+ 4.033072 2 10 undefined 64 ------- 0 0.0 10.0 -1 80
- 4.033072 2 10 undefined 64 ------- 0 0.0 10.0 -1 80
r 4.033584 0 2 undefined 64 ------- 0 0.0 12.0 -1 81
+ 4.033584 2 12 undefined 64 ------- 0 0.0 12.0 -1 81
- 4.033584 2 12 undefined 64 ------- 0 0.0 12.0 -1 81
r 4.034096 0 2 undefined 64 ------- 0 0.0 14.0 -1 82
+ 4.034096 2 14 undefined 64 ------- 0 0.0 14.0 -1 82
- 4.034096 2 14 undefined 64 ------- 0 0.0 14.0 -1 82
r 4.042048 2 0 undefined 64 ------- 0 2.0 0.0 -1 83
r 4.042048 4 0 undefined 64 ------- 0 4.0 0.0 -1 84
r 4.04256 2 6 undefined 64 ------- 0 0.0 6.0 -1 78
+ 4.04256 6 2 undefined 64 ------- 0 6.0 0.0 -1 85
- 4.04256 6 2 undefined 64 ------- 0 6.0 0.0 -1 85
r 4.043072 2 8 undefined 64 ------- 0 0.0 8.0 -1 79
+ 4.043072 8 2 undefined 64 ------- 0 8.0 0.0 -1 86
- 4.043072 8 2 undefined 64 ------- 0 8.0 0.0 -1 86
r 4.043584 2 10 undefined 64 ------- 0 0.0 10.0 -1 80
+ 4.043584 10 2 undefined 64 ------- 0 10.0 0.0 -1 87
- 4.043584 10 2 undefined 64 ------- 0 10.0 0.0 -1 87
r 4.044096 2 12 undefined 64 ------- 0 0.0 12.0 -1 81
+ 4.044096 12 2 undefined 64 ------- 0 12.0 0.0 -1 88
- 4.044096 12 2 undefined 64 ------- 0 12.0 0.0 -1 88
r 4.044608 2 14 undefined 64 ------- 0 0.0 14.0 -1 82
+ 4.044608 14 2 undefined 64 ------- 0 14.0 0.0 -1 89
- 4.044608 14 2 undefined 64 ------- 0 14.0 0.0 -1 89
r 4.053072 6 2 undefined 64 ------- 0 6.0 0.0 -1 85
+ 4.053072 2 0 undefined 64 ------- 0 6.0 0.0 -1 85
- 4.053072 2 0 undefined 64 ------- 0 6.0 0.0 -1 85
r 4.053584 8 2 undefined 64 ------- 0 8.0 0.0 -1 86
+ 4.053584 2 0 undefined 64 ------- 0 8.0 0.0 -1 86
- 4.053584 2 0 undefined 64 ------- 0 8.0 0.0 -1 86
r 4.054096 10 2 undefined 64 ------- 0 10.0 0.0 -1 87
+ 4.054096 2 0 undefined 64 ------- 0 10.0 0.0 -1 87
- 4.054096 2 0 undefined 64 ------- 0 10.0 0.0 -1 87
r 4.054608 12 2 undefined 64 ------- 0 12.0 0.0 -1 88
+ 4.054608 2 0 undefined 64 ------- 0 12.0 0.0 -1 88
- 4.054608 2 0 undefined 64 ------- 0 12.0 0.0 -1 88
r 4.05512 14 2 undefined 64 ------- 0 14.0 0.0 -1 89
+ 4.05512 2 0 undefined 64 ------- 0 14.0 0.0 -1 89
- 4.05512 2 0 undefined 64 ------- 0 14.0 0.0 -1 89
r 4.063584 2 0 undefined 64 ------- 0 6.0 0.0 -1 85
r 4.064096 2 0 undefined 64 ------- 0 8.0 0.0 -1 86
r 4.064608 2 0 undefined 64 ------- 0 10.0 0.0 -1 87
r 4.06512 2 0 undefined 64 ------- 0 12.0 0.0 -1 88
r 4.065632 2 0 undefined 64 ------- 0 14.0 0.0 -1 89
+ 4.065632 0 2 undefined 1152 ------- 0 0.0 2.0 -1 90
- 4.065632 0 2 undefined 1152 ------- 0 0.0 2.0 -1 90
+ 4.065632 0 4 undefined 1152 ------- 0 0.0 4.0 -1 91
- 4.065632 0 4 undefined 1152 ------- 0 0.0 4.0 -1 91
+ 4.065632 0 2 undefined 1152 ------- 0 0.0 6.0 -1 92
+ 4.065632 0 2 undefined 1152 ------- 0 0.0 8.0 -1 93
+ 4.065632 0 2 undefined 1152 ------- 0 0.0 10.0 -1 94
+ 4.065632 0 2 undefined 1152 ------- 0 0.0 12.0 -1 95
+ 4.065632 0 2 undefined 1152 ------- 0 0.0 14.0 -1 96
+ 4.065632 0 2 undefined 1152 ------- 0 0.0 16.0 -1 97
- 4.074848 0 2 undefined 1152 ------- 0 0.0 6.0 -1 92
- 4.084064 0 2 undefined 1152 ------- 0 0.0 8.0 -1 93
r 4.084848 0 2 undefined 1152 ------- 0 0.0 2.0 -1 90
r 4.084848 0 4 undefined 1152 ------- 0 0.0 4.0 -1 91
- 4.09328 0 2 undefined 1152 ------- 0 0.0 10.0 -1 94
r 4.094064 0 2 undefined 1152 ------- 0 0.0 6.0 -1 92
+ 4.094064 2 6 undefined 1152 ------- 0 0.0 6.0 -1 92
- 4.094064 2 6 undefined 1152 ------- 0 0.0 6.0 -1 92
- 4.102496 0 2 undefined 1152 ------- 0 0.0 12.0 -1 95
r 4.10328 0 2 undefined 1152 ------- 0 0.0 8.0 -1 93
+ 4.10328 2 8 undefined 1152 ------- 0 0.0 8.0 -1 93
- 4.10328 2 8 undefined 1152 ------- 0 0.0 8.0 -1 93
- 4.111712 0 2 undefined 1152 ------- 0 0.0 14.0 -1 96
r 4.112496 0 2 undefined 1152 ------- 0 0.0 10.0 -1 94
+ 4.112496 2 10 undefined 1152 ------- 0 0.0 10.0 -1 94
- 4.112496 2 10 undefined 1152 ------- 0 0.0 10.0 -1 94
r 4.11328 2 6 undefined 1152 ------- 0 0.0 6.0 -1 92
- 4.120928 0 2 undefined 1152 ------- 0 0.0 16.0 -1 97
r 4.121712 0 2 undefined 1152 ------- 0 0.0 12.0 -1 95
+ 4.121712 2 12 undefined 1152 ------- 0 0.0 12.0 -1 95
- 4.121712 2 12 undefined 1152 ------- 0 0.0 12.0 -1 95
r 4.122496 2 8 undefined 1152 ------- 0 0.0 8.0 -1 93
r 4.130928 0 2 undefined 1152 ------- 0 0.0 14.0 -1 96
+ 4.130928 2 14 undefined 1152 ------- 0 0.0 14.0 -1 96
- 4.130928 2 14 undefined 1152 ------- 0 0.0 14.0 -1 96
r 4.131712 2 10 undefined 1152 ------- 0 0.0 10.0 -1 94
r 4.140144 0 2 undefined 1152 ------- 0 0.0 16.0 -1 97
+ 4.140144 2 16 undefined 1152 ------- 0 0.0 16.0 -1 97
- 4.140144 2 16 undefined 1152 ------- 0 0.0 16.0 -1 97
r 4.140928 2 12 undefined 1152 ------- 0 0.0 12.0 -1 95
r 4.150144 2 14 undefined 1152 ------- 0 0.0 14.0 -1 96
r 4.15936 2 16 undefined 1152 ------- 0 0.0 16.0 -1 97
+ 4.5 18 2 undefined 64 ------- 0 18.0 0.0 -1 98
- 4.5 18 2 undefined 64 ------- 0 18.0 0.0 -1 98
r 4.510512 18 2 undefined 64 ------- 0 18.0 0.0 -1 98
+ 4.510512 2 0 undefined 64 ------- 0 18.0 0.0 -1 98
- 4.510512 2 0 undefined 64 ------- 0 18.0 0.0 -1 98
r 4.521024 2 0 undefined 64 ------- 0 18.0 0.0 -1 98
+ 4.521024 0 2 undefined 64 ------- 0 0.0 2.0 -1 99
- 4.521024 0 2 undefined 64 ------- 0 0.0 2.0 -1 99
+ 4.521024 0 4 undefined 64 ------- 0 0.0 4.0 -1 100
- 4.521024 0 4 undefined 64 ------- 0 0.0 4.0 -1 100
+ 4.521024 0 2 undefined 64 ------- 0 0.0 6.0 -1 101
+ 4.521024 0 2 undefined 64 ------- 0 0.0 8.0 -1 102
+ 4.521024 0 2 undefined 64 ------- 0 0.0 10.0 -1 103
+ 4.521024 0 2 undefined 64 ------- 0 0.0 12.0 -1 104
+ 4.521024 0 2 undefined 64 ------- 0 0.0 14.0 -1 105
+ 4.521024 0 2 undefined 64 ------- 0 0.0 16.0 -1 106
- 4.521536 0 2 undefined 64 ------- 0 0.0 6.0 -1 101
- 4.522048 0 2 undefined 64 ------- 0 0.0 8.0 -1 102
- 4.52256 0 2 undefined 64 ------- 0 0.0 10.0 -1 103
- 4.523072 0 2 undefined 64 ------- 0 0.0 12.0 -1 104
- 4.523584 0 2 undefined 64 ------- 0 0.0 14.0 -1 105
- 4.524096 0 2 undefined 64 ------- 0 0.0 16.0 -1 106
r 4.531536 0 2 undefined 64 ------- 0 0.0 2.0 -1 99
+ 4.531536 2 0 undefined 64 ------- 0 2.0 0.0 -1 107
- 4.531536 2 0 undefined 64 ------- 0 2.0 0.0 -1 107
r 4.531536 0 4 undefined 64 ------- 0 0.0 4.0 -1 100
+ 4.531536 4 0 undefined 64 ------- 0 4.0 0.0 -1 108
- 4.531536 4 0 undefined 64 ------- 0 4.0 0.0 -1 108
r 4.532048 0 2 undefined 64 ------- 0 0.0 6.0 -1 101
+ 4.532048 2 6 undefined 64 ------- 0 0.0 6.0 -1 101
- 4.532048 2 6 undefined 64 ------- 0 0.0 6.0 -1 101
r 4.53256 0 2 undefined 64 ------- 0 0.0 8.0 -1 102
+ 4.53256 2 8 undefined 64 ------- 0 0.0 8.0 -1 102
- 4.53256 2 8 undefined 64 ------- 0 0.0 8.0 -1 102
r 4.533072 0 2 undefined 64 ------- 0 0.0 10.0 -1 103
+ 4.533072 2 10 undefined 64 ------- 0 0.0 10.0 -1 103
- 4.533072 2 10 undefined 64 ------- 0 0.0 10.0 -1 103
r 4.533584 0 2 undefined 64 ------- 0 0.0 12.0 -1 104
+ 4.533584 2 12 undefined 64 ------- 0 0.0 12.0 -1 104
- 4.533584 2 12 undefined 64 ------- 0 0.0 12.0 -1 104
r 4.534096 0 2 undefined 64 ------- 0 0.0 14.0 -1 105
+ 4.534096 2 14 undefined 64 ------- 0 0.0 14.0 -1 105
- 4.534096 2 14 undefined 64 ------- 0 0.0 14.0 -1 105
r 4.534608 0 2 undefined 64 ------- 0 0.0 16.0 -1 106
+ 4.534608 2 16 undefined 64 ------- 0 0.0 16.0 -1 106
- 4.534608 2 16 undefined 64 ------- 0 0.0 16.0 -1 106
r 4.542048 2 0 undefined 64 ------- 0 2.0 0.0 -1 107
r 4.542048 4 0 undefined 64 ------- 0 4.0 0.0 -1 108
r 4.54256 2 6 undefined 64 ------- 0 0.0 6.0 -1 101
+ 4.54256 6 2 undefined 64 ------- 0 6.0 0.0 -1 109
- 4.54256 6 2 undefined 64 ------- 0 6.0 0.0 -1 109
r 4.543072 2 8 undefined 64 ------- 0 0.0 8.0 -1 102
+ 4.543072 8 2 undefined 64 ------- 0 8.0 0.0 -1 110
- 4.543072 8 2 undefined 64 ------- 0 8.0 0.0 -1 110
r 4.543584 2 10 undefined 64 ------- 0 0.0 10.0 -1 103
+ 4.543584 10 2 undefined 64 ------- 0 10.0 0.0 -1 111
- 4.543584 10 2 undefined 64 ------- 0 10.0 0.0 -1 111
r 4.544096 2 12 undefined 64 ------- 0 0.0 12.0 -1 104
+ 4.544096 12 2 undefined 64 ------- 0 12.0 0.0 -1 112
- 4.544096 12 2 undefined 64 ------- 0 12.0 0.0 -1 112
r 4.544608 2 14 undefined 64 ------- 0 0.0 14.0 -1 105
+ 4.544608 14 2 undefined 64 ------- 0 14.0 0.0 -1 113
- 4.544608 14 2 undefined 64 ------- 0 14.0 0.0 -1 113
r 4.54512 2 16 undefined 64 ------- 0 0.0 16.0 -1 106
+ 4.54512 16 2 undefined 64 ------- 0 16.0 0.0 -1 114
- 4.54512 16 2 undefined 64 ------- 0 16.0 0.0 -1 114
r 4.553072 6 2 undefined 64 ------- 0 6.0 0.0 -1 109
+ 4.553072 2 0 undefined 64 ------- 0 6.0 0.0 -1 109
- 4.553072 2 0 undefined 64 ------- 0 6.0 0.0 -1 109
r 4.553584 8 2 undefined 64 ------- 0 8.0 0.0 -1 110
+ 4.553584 2 0 undefined 64 ------- 0 8.0 0.0 -1 110
- 4.553584 2 0 undefined 64 ------- 0 8.0 0.0 -1 110
r 4.554096 10 2 undefined 64 ------- 0 10.0 0.0 -1 111
+ 4.554096 2 0 undefined 64 ------- 0 10.0 0.0 -1 111
- 4.554096 2 0 undefined 64 ------- 0 10.0 0.0 -1 111
r 4.554608 12 2 undefined 64 ------- 0 12.0 0.0 -1 112
+ 4.554608 2 0 undefined 64 ------- 0 12.0 0.0 -1 112
- 4.554608 2 0 undefined 64 ------- 0 12.0 0.0 -1 112
r 4.55512 14 2 undefined 64 ------- 0 14.0 0.0 -1 113
+ 4.55512 2 0 undefined 64 ------- 0 14.0 0.0 -1 113
- 4.55512 2 0 undefined 64 ------- 0 14.0 0.0 -1 113
r 4.555632 16 2 undefined 64 ------- 0 16.0 0.0 -1 114
+ 4.555632 2 0 undefined 64 ------- 0 16.0 0.0 -1 114
- 4.555632 2 0 undefined 64 ------- 0 16.0 0.0 -1 114
r 4.563584 2 0 undefined 64 ------- 0 6.0 0.0 -1 109
r 4.564096 2 0 undefined 64 ------- 0 8.0 0.0 -1 110
r 4.564608 2 0 undefined 64 ------- 0 10.0 0.0 -1 111
r 4.56512 2 0 undefined 64 ------- 0 12.0 0.0 -1 112
r 4.565632 2 0 undefined 64 ------- 0 14.0 0.0 -1 113
r 4.566144 2 0 undefined 64 ------- 0 16.0 0.0 -1 114
+ 4.566144 0 2 undefined 1280 ------- 0 0.0 2.0 -1 115
- 4.566144 0 2 undefined 1280 ------- 0 0.0 2.0 -1 115
+ 4.566144 0 4 undefined 1280 ------- 0 0.0 4.0 -1 116
- 4.566144 0 4 undefined 1280 ------- 0 0.0 4.0 -1 116
+ 4.566144 0 2 undefined 1280 ------- 0 0.0 6.0 -1 117
+ 4.566144 0 2 undefined 1280 ------- 0 0.0 8.0 -1 118
+ 4.566144 0 2 undefined 1280 ------- 0 0.0 10.0 -1 119
+ 4.566144 0 2 undefined 1280 ------- 0 0.0 12.0 -1 120
+ 4.566144 0 2 undefined 1280 ------- 0 0.0 14.0 -1 121
+ 4.566144 0 2 undefined 1280 ------- 0 0.0 16.0 -1 122
+ 4.566144 0 2 undefined 1280 ------- 0 0.0 18.0 -1 123
- 4.576384 0 2 undefined 1280 ------- 0 0.0 6.0 -1 117