V -t * -v 1.0a5 -a 0
A -t * -n 1 -p 0 -o 0xffffffff -c 31 -a 1
A -t * -h 1 -m 2147483647 -s 0
n -t * -a 35 -s 35 -S UP -v circle -c black -i black
n -t * -a 17 -s 17 -S UP -v circle -c black -i black
n -t * -a 0 -s 0 -S UP -v circle -c black -i black
n -t * -a 36 -s 36 -S UP -v circle -c black -i black
n -t * -a 18 -s 18 -S UP -v circle -c black -i black
n -t * -a 1 -s 1 -S UP -v circle -c black -i black
n -t * -a 37 -s 37 -S UP -v circle -c black -i black
n -t * -a 20 -s 20 -S UP -v circle -c black -i black
n -t * -a 19 -s 19 -S UP -v circle -c black -i black
n -t * -a 2 -s 2 -S UP -v circle -c black -i black
n -t * -a 38 -s 38 -S UP -v circle -c black -i black
n -t * -a 21 -s 21 -S UP -v circle -c black -i black
n -t * -a 3 -s 3 -S UP -v circle -c black -i black
n -t * -a 39 -s 39 -S UP -v circle -c black -i black
n -t * -a 22 -s 22 -S UP -v circle -c black -i black
n -t * -a 4 -s 4 -S UP -v circle -c black -i black
n -t * -a 23 -s 23 -S UP -v circle -c black -i black
n -t * -a 5 -s 5 -S UP -v circle -c black -i black
n -t * -a 24 -s 24 -S UP -v circle -c black -i black
n -t * -a 6 -s 6 -S UP -v circle -c black -i black
n -t * -a 25 -s 25 -S UP -v circle -c black -i black
n -t * -a 7 -s 7 -S UP -v circle -c black -i black
n -t * -a 26 -s 26 -S UP -v circle -c black -i black
n -t * -a 8 -s 8 -S UP -v circle -c black -i black
n -t * -a 27 -s 27 -S UP -v circle -c black -i black
n -t * -a 9 -s 9 -S UP -v circle -c black -i black
n -t * -a 10 -s 10 -S UP -v circle -c black -i black
n -t * -a 28 -s 28 -S UP -v circle -c black -i black
n -t * -a 11 -s 11 -S UP -v circle -c black -i black
n -t * -a 30 -s 30 -S UP -v circle -c black -i black
n -t * -a 29 -s 29 -S UP -v circle -c black -i black
n -t * -a 12 -s 12 -S UP -v circle -c black -i black
n -t * -a 31 -s 31 -S UP -v circle -c black -i black
n -t * -a 13 -s 13 -S UP -v circle -c black -i black
n -t * -a 32 -s 32 -S UP -v circle -c black -i black
n -t * -a 14 -s 14 -S UP -v circle -c black -i black
n -t * -a 33 -s 33 -S UP -v circle -c black -i black
n -t * -a 15 -s 15 -S UP -v circle -c black -i black
n -t * -a 34 -s 34 -S UP -v circle -c black -i black
n -t * -a 16 -s 16 -S UP -v circle -c black -i black
l -t * -s 0 -d 2 -S UP -r 1000000 -D 0.01 -c black
l -t * -s 0 -d 4 -S UP -r 1000000 -D 0.01 -c black
l -t * -s 1 -d 3 -S UP -r 1000000 -D 0.01 -c black
l -t * -s 1 -d 5 -S UP -r 1000000 -D 0.01 -c black
l -t * -s 2 -d 6 -S UP -r 1000000 -D 0.01 -c black
l -t * -s 3 -d 7 -S UP -r 1000000 -D 0.01 -c black
l -t * -s 2 -d 8 -S UP -r 1000000 -D 0.01 -c black
l -t * -s 3 -d 9 -S UP -r 1000000 -D 0.01 -c black
l -t * -s 2 -d 10 -S UP -r 1000000 -D 0.01 -c black
l -t * -s 3 -d 11 -S UP -r 1000000 -D 0.01 -c black
l -t * -s 2 -d 12 -S UP -r 1000000 -D 0.01 -c black
l -t * -s 3 -d 13 -S UP -r 1000000 -D 0.01 -c black
l -t * -s 2 -d 14 -S UP -r 1000000 -D 0.01 -c black
l -t * -s 3 -d 15 -S UP -r 1000000 -D 0.01 -c black
l -t * -s 2 -d 16 -S UP -r 1000000 -D 0.01 -c black
l -t * -s 3 -d 17 -S UP -r 1000000 -D 0.01 -c black
l -t * -s 2 -d 18 -S UP -r 1000000 -D 0.01 -c black
l -t * -s 3 -d 19 -S UP -r 1000000 -D 0.01 -c black
l -t * -s 4 -d 20 -S UP -r 1000000 -D 0.01 -c black
l -t * -s 5 -d 21 -S UP -r 1000000 -D 0.01 -c black
l -t * -s 4 -d 22 -S UP -r 1000000 -D 0.01 -c black
l -t * -s 5 -d 23 -S UP -r 1000000 -D 0.01 -c black
l -t * -s 4 -d 24 -S UP -r 1000000 -D 0.01 -c black
l -t * -s 5 -d 25 -S UP -r 1000000 -D 0.01 -c black
l -t * -s 4 -d 26 -S UP -r 1000000 -D 0.01 -c black
l -t * -s 5 -d 27 -S UP -r 1000000 -D 0.01 -c black
l -t * -s 4 -d 28 -S UP -r 1000000 -D 0.01 -c black
l -t * -s 5 -d 29 -S UP -r 1000000 -D 0.01 -c black
l -t * -s 4 -d 30 -S UP -r 1000000 -D 0.01 -c black
l -t * -s 5 -d 31 -S UP -r 1000000 -D 0.01 -c black
l -t * -s 4 -d 32 -S UP -r 1000000 -D 0.01 -c black
l -t * -s 5 -d 33 -S UP -r 1000000 -D 0.01 -c black
l -t * -s 4 -d 34 -S UP -r 1000000 -D 0.01 -c black
l -t * -s 5 -d 35 -S UP -r 1000000 -D 0.01 -c black
l -t * -s 4 -d 36 -S UP -r 1000000 -D 0.01 -c black
l -t * -s 5 -d 37 -S UP -r 1000000 -D 0.01 -c black
l -t * -s 4 -d 38 -S UP -r 1000000 -D 0.01 -c black
l -t * -s 5 -d 39 -S UP -r 1000000 -D 0.01 -c black
l -t * -s 1 -d 0 -S UP -r 1000000 -D 0.01 -c black
+ -t 0.5 -s 2 -d 0 -p undefined -e 64 -c 0 -i 0 -a 0 -x {2.0 0.0 -1 ------- null}
- -t 0.5 -s 2 -d 0 -p undefined -e 64 -c 0 -i 0 -a 0 -x {2.0 0.0 -1 ------- null}
h -t 0.5 -s 2 -d 0 -p undefined -e 64 -c 0 -i 0 -a 0 -x {2.0 0.0 -1 ------- null}
+ -t 0.5 -s 3 -d 1 -p undefined -e 64 -c 0 -i 1 -a 0 -x {3.0 1.0 -1 ------- null}
- -t 0.5 -s 3 -d 1 -p undefined -e 64 -c 0 -i 1 -a 0 -x {3.0 1.0 -1 ------- null}
h -t 0.5 -s 3 -d 1 -p undefined -e 64 -c 0 -i 1 -a 0 -x {3.0 1.0 -1 ------- null}
r -t 0.510512 -s 2 -d 0 -p undefined -e 64 -c 0 -i 0 -a 0 -x {2.0 0.0 -1 ------- null}
+ -t 0.510512 -s 0 -d 2 -p undefined -e 256 -c 0 -i 2 -a 0 -x {0.0 2.0 -1 ------- null}
- -t 0.510512 -s 0 -d 2 -p undefined -e 256 -c 0 -i 2 -a 0 -x {0.0 2.0 -1 ------- null}
h -t 0.510512 -s 0 -d 2 -p undefined -e 256 -c 0 -i 2 -a 0 -x {0.0 2.0 -1 ------- null}
r -t 0.510512 -s 3 -d 1 -p undefined -e 64 -c 0 -i 1 -a 0 -x {3.0 1.0 -1 ------- null}
+ -t 0.510512 -s 1 -d 3 -p undefined -e 256 -c 0 -i 3 -a 0 -x {1.0 3.0 -1 ------- null}
- -t 0.510512 -s 1 -d 3 -p undefined -e 256 -c 0 -i 3 -a 0 -x {1.0 3.0 -1 ------- null}
h -t 0.510512 -s 1 -d 3 -p undefined -e 256 -c 0 -i 3 -a 0 -x {1.0 3.0 -1 ------- null}
r -t 0.52256 -s 0 -d 2 -p undefined -e 256 -c 0 -i 2 -a 0 -x {0.0 2.0 -1 ------- null}
r -t 0.52256 -s 1 -d 3 -p undefined -e 256 -c 0 -i 3 -a 0 -x {1.0 3.0 -1 ------- null}
+ -t 1 -s 4 -d 0 -p undefined -e 64 -c 0 -i 4 -a 0 -x {4.0 0.0 -1 ------- null}
- -t 1 -s 4 -d 0 -p undefined -e 64 -c 0 -i 4 -a 0 -x {4.0 0.0 -1 ------- null}
h -t 1 -s 4 -d 0 -p undefined -e 64 -c 0 -i 4 -a 0 -x {4.0 0.0 -1 ------- null}
+ -t 1 -s 5 -d 1 -p undefined -e 64 -c 0 -i 5 -a 0 -x {5.0 1.0 -1 ------- null}
- -t 1 -s 5 -d 1 -p undefined -e 64 -c 0 -i 5 -a 0 -x {5.0 1.0 -1 ------- null}
h -t 1 -s 5 -d 1 -p undefined -e 64 -c 0 -i 5 -a 0 -x {5.0 1.0 -1 ------- null}
r -t 1.010512 -s 4 -d 0 -p undefined -e 64 -c 0 -i 4 -a 0 -x {4.0 0.0 -1 ------- null}
+ -t 1.010512 -s 0 -d 2 -p undefined -e 384 -c 0 -i 6 -a 0 -x {0.0 2.0 -1 ------- null}
- -t 1.010512 -s 0 -d 2 -p undefined -e 384 -c 0 -i 6 -a 0 -x {0.0 2.0 -1 ------- null}
h -t 1.010512 -s 0 -d 2 -p undefined -e 384 -c 0 -i 6 -a 0 -x {0.0 2.0 -1 ------- null}
+ -t 1.010512 -s 0 -d 4 -p undefined -e 384 -c 0 -i 7 -a 0 -x {0.0 4.0 -1 ------- null}
- -t 1.010512 -s 0 -d 4 -p undefined -e 384 -c 0 -i 7 -a 0 -x {0.0 4.0 -1 ------- null}
h -t 1.010512 -s 0 -d 4 -p undefined -e 384 -c 0 -i 7 -a 0 -x {0.0 4.0 -1 ------- null}
r -t 1.010512 -s 5 -d 1 -p undefined -e 64 -c 0 -i 5 -a 0 -x {5.0 1.0 -1 ------- null}
+ -t 1.010512 -s 1 -d 3 -p undefined -e 384 -c 0 -i 8 -a 0 -x {1.0 3.0 -1 ------- null}
- -t 1.010512 -s 1 -d 3 -p undefined -e 384 -c 0 -i 8 -a 0 -x {1.0 3.0 -1 ------- null}
h -t 1.010512 -s 1 -d 3 -p undefined -e 384 -c 0 -i 8 -a 0 -x {1.0 3.0 -1 ------- null}
+ -t 1.010512 -s 1 -d 5 -p undefined -e 384 -c 0 -i 9 -a 0 -x {1.0 5.0 -1 ------- null}
- -t 1.010512 -s 1 -d 5 -p undefined -e 384 -c 0 -i 9 -a 0 -x {1.0 5.0 -1 ------- null}
h -t 1.010512 -s 1 -d 5 -p undefined -e 384 -c 0 -i 9 -a 0 -x {1.0 5.0 -1 ------- null}
r -t 1.023584 -s 0 -d 2 -p undefined -e 384 -c 0 -i 6 -a 0 -x {0.0 2.0 -1 ------- null}
r -t 1.023584 -s 0 -d 4 -p undefined -e 384 -c 0 -i 7 -a 0 -x {0.0 4.0 -1 ------- null}
r -t 1.023584 -s 1 -d 3 -p undefined -e 384 -c 0 -i 8 -a 0 -x {1.0 3.0 -1 ------- null}
r -t 1.023584 -s 1 -d 5 -p undefined -e 384 -c 0 -i 9 -a 0 -x {1.0 5.0 -1 ------- null}
+ -t 1.5 -s 6 -d 2 -p undefined -e 64 -c 0 -i 10 -a 0 -x {6.0 0.0 -1 ------- null}
- -t 1.5 -s 6 -d 2 -p undefined -e 64 -c 0 -i 10 -a 0 -x {6.0 0.0 -1 ------- null}
h -t 1.5 -s 6 -d 2 -p undefined -e 64 -c 0 -i 10 -a 0 -x {6.0 0.0 -1 ------- null}
+ -t 1.5 -s 7 -d 3 -p undefined -e 64 -c 0 -i 11 -a 0 -x {7.0 1.0 -1 ------- null}
- -t 1.5 -s 7 -d 3 -p undefined -e 64 -c 0 -i 11 -a 0 -x {7.0 1.0 -1 ------- null}
h -t 1.5 -s 7 -d 3 -p undefined -e 64 -c 0 -i 11 -a 0 -x {7.0 1.0 -1 ------- null}
r -t 1.510512 -s 6 -d 2 -p undefined -e 64 -c 0 -i 10 -a 0 -x {6.0 0.0 -1 ------- null}
+ -t 1.510512 -s 2 -d 0 -p undefined -e 64 -c 0 -i 10 -a 0 -x {6.0 0.0 -1 ------- null}
- -t 1.510512 -s 2 -d 0 -p undefined -e 64 -c 0 -i 10 -a 0 -x {6.0 0.0 -1 ------- null}
h -t 1.510512 -s 2 -d 0 -p undefined -e 64 -c 0 -i 10 -a 0 -x {6.0 0.0 -1 ------- null}
r -t 1.510512 -s 7 -d 3 -p undefined -e 64 -c 0 -i 11 -a 0 -x {7.0 1.0 -1 ------- null}
+ -t 1.510512 -s 3 -d 1 -p undefined -e 64 -c 0 -i 11 -a 0 -x {7.0 1.0 -1 ------- null}
- -t 1.510512 -s 3 -d 1 -p undefined -e 64 -c 0 -i 11 -a 0 -x {7.0 1.0 -1 ------- null}
h -t 1.510512 -s 3 -d 1 -p undefined -e 64 -c 0 -i 11 -a 0 -x {7.0 1.0 -1 ------- null}
r -t 1.521024 -s 2 -d 0 -p undefined -e 64 -c 0 -i 10 -a 0 -x {6.0 0.0 -1 ------- null}
+ -t 1.521024 -s 0 -d 2 -p undefined -e 64 -c 0 -i 12 -a 0 -x {0.0 2.0 -1 ------- null}
- -t 1.521024 -s 0 -d 2 -p undefined -e 64 -c 0 -i 12 -a 0 -x {0.0 2.0 -1 ------- null}
h -t 1.521024 -s 0 -d 2 -p undefined -e 64 -c 0 -i 12 -a 0 -x {0.0 2.0 -1 ------- null}
+ -t 1.521024 -s 0 -d 4 -p undefined -e 64 -c 0 -i 13 -a 0 -x {0.0 4.0 -1 ------- null}
- -t 1.521024 -s 0 -d 4 -p undefined -e 64 -c 0 -i 13 -a 0 -x {0.0 4.0 -1 ------- null}
h -t 1.521024 -s 0 -d 4 -p undefined -e 64 -c 0 -i 13 -a 0 -x {0.0 4.0 -1 ------- null}
r -t 1.521024 -s 3 -d 1 -p undefined -e 64 -c 0 -i 11 -a 0 -x {7.0 1.0 -1 ------- null}
+ -t 1.521024 -s 1 -d 3 -p undefined -e 64 -c 0 -i 14 -a 0 -x {1.0 3.0 -1 ------- null}
- -t 1.521024 -s 1 -d 3 -p undefined -e 64 -c 0 -i 14 -a 0 -x {1.0 3.0 -1 ------- null}
h -t 1.521024 -s 1 -d 3 -p undefined -e 64 -c 0 -i 14 -a 0 -x {1.0 3.0 -1 ------- null}
+ -t 1.521024 -s 1 -d 5 -p undefined -e 64 -c 0 -i 15 -a 0 -x {1.0 5.0 -1 ------- null}
- -t 1.521024 -s 1 -d 5 -p undefined -e 64 -c 0 -i 15 -a 0 -x {1.0 5.0 -1 ------- null}
h -t 1.521024 -s 1 -d 5 -p undefined -e 64 -c 0 -i 15 -a 0 -x {1.0 5.0 -1 ------- null}
r -t 1.531536 -s 0 -d 2 -p undefined -e 64 -c 0 -i 12 -a 0 -x {0.0 2.0 -1 ------- null}
+ -t 1.531536 -s 2 -d 0 -p undefined -e 64 -c 0 -i 16 -a 0 -x {2.0 0.0 -1 ------- null}
- -t 1.531536 -s 2 -d 0 -p undefined -e 64 -c 0 -i 16 -a 0 -x {2.0 0.0 -1 ------- null}
h -t 1.531536 -s 2 -d 0 -p undefined -e 64 -c 0 -i 16 -a 0 -x {2.0 0.0 -1 ------- null}
r -t 1.531536 -s 0 -d 4 -p undefined -e 64 -c 0 -i 13 -a 0 -x {0.0 4.0 -1 ------- null}
+ -t 1.531536 -s 4 -d 0 -p undefined -e 64 -c 0 -i 17 -a 0 -x {4.0 0.0 -1 ------- null}
- -t 1.531536 -s 4 -d 0 -p undefined -e 64 -c 0 -i 17 -a 0 -x {4.0 0.0 -1 ------- null}
h -t 1.531536 -s 4 -d 0 -p undefined -e 64 -c 0 -i 17 -a 0 -x {4.0 0.0 -1 ------- null}
r -t 1.531536 -s 1 -d 3 -p undefined -e 64 -c 0 -i 14 -a 0 -x {1.0 3.0 -1 ------- null}
+ -t 1.531536 -s 3 -d 1 -p undefined -e 64 -c 0 -i 18 -a 0 -x {3.0 1.0 -1 ------- null}
- -t 1.531536 -s 3 -d 1 -p undefined -e 64 -c 0 -i 18 -a 0 -x {3.0 1.0 -1 ------- null}
h -t 1.531536 -s 3 -d 1 -p undefined -e 64 -c 0 -i 18 -a 0 -x {3.0 1.0 -1 ------- null}
r -t 1.531536 -s 1 -d 5 -p undefined -e 64 -c 0 -i 15 -a 0 -x {1.0 5.0 -1 ------- null}
+ -t 1.531536 -s 5 -d 1 -p undefined -e 64 -c 0 -i 19 -a 0 -x {5.0 1.0 -1 ------- null}
- -t 1.531536 -s 5 -d 1 -p undefined -e 64 -c 0 -i 19 -a 0 -x {5.0 1.0 -1 ------- null}
h -t 1.531536 -s 5 -d 1 -p undefined -e 64 -c 0 -i 19 -a 0 -x {5.0 1.0 -1 ------- null}
r -t 1.542048 -s 2 -d 0 -p undefined -e 64 -c 0 -i 16 -a 0 -x {2.0 0.0 -1 ------- null}
r -t 1.542048 -s 4 -d 0 -p undefined -e 64 -c 0 -i 17 -a 0 -x {4.0 0.0 -1 ------- null}
+ -t 1.542048 -s 0 -d 2 -p undefined -e 512 -c 0 -i 20 -a 0 -x {0.0 2.0 -1 ------- null}
- -t 1.542048 -s 0 -d 2 -p undefined -e 512 -c 0 -i 20 -a 0 -x {0.0 2.0 -1 ------- null}
h -t 1.542048 -s 0 -d 2 -p undefined -e 512 -c 0 -i 20 -a 0 -x {0.0 2.0 -1 ------- null}
+ -t 1.542048 -s 0 -d 4 -p undefined -e 512 -c 0 -i 21 -a 0 -x {0.0 4.0 -1 ------- null}
- -t 1.542048 -s 0 -d 4 -p undefined -e 512 -c 0 -i 21 -a 0 -x {0.0 4.0 -1 ------- null}
h -t 1.542048 -s 0 -d 4 -p undefined -e 512 -c 0 -i 21 -a 0 -x {0.0 4.0 -1 ------- null}
+ -t 1.542048 -s 0 -d 2 -p undefined -e 512 -c 0 -i 22 -a 0 -x {0.0 6.0 -1 ------- null}
r -t 1.542048 -s 3 -d 1 -p undefined -e 64 -c 0 -i 18 -a 0 -x {3.0 1.0 -1 ------- null}
r -t 1.542048 -s 5 -d 1 -p undefined -e 64 -c 0 -i 19 -a 0 -x {5.0 1.0 -1 ------- null}
+ -t 1.542048 -s 1 -d 3 -p undefined -e 512 -c 0 -i 23 -a 0 -x {1.0 3.0 -1 ------- null}
- -t 1.542048 -s 1 -d 3 -p undefined -e 512 -c 0 -i 23 -a 0 -x {1.0 3.0 -1 ------- null}
h -t 1.542048 -s 1 -d 3 -p undefined -e 512 -c 0 -i 23 -a 0 -x {1.0 3.0 -1 ------- null}
+ -t 1.542048 -s 1 -d 5 -p undefined -e 512 -c 0 -i 24 -a 0 -x {1.0 5.0 -1 ------- null}
- -t 1.542048 -s 1 -d 5 -p undefined -e 512 -c 0 -i 24 -a 0 -x {1.0 5.0 -1 ------- null}
h -t 1.542048 -s 1 -d 5 -p undefined -e 512 -c 0 -i 24 -a 0 -x {1.0 5.0 -1 ------- null}
+ -t 1.542048 -s 1 -d 3 -p undefined -e 512 -c 0 -i 25 -a 0 -x {1.0 7.0 -1 ------- null}
- -t 1.546144 -s 0 -d 2 -p undefined -e 512 -c 0 -i 22 -a 0 -x {0.0 6.0 -1 ------- null}
h -t 1.546144 -s 0 -d 2 -p undefined -e 512 -c 0 -i 22 -a 0 -x {0.0 6.0 -1 ------- null}
- -t 1.546144 -s 1 -d 3 -p undefined -e 512 -c 0 -i 25 -a 0 -x {1.0 7.0 -1 ------- null}
h -t 1.546144 -s 1 -d 3 -p undefined -e 512 -c 0 -i 25 -a 0 -x {1.0 7.0 -1 ------- null}
r -t 1.556144 -s 0 -d 2 -p undefined -e 512 -c 0 -i 20 -a 0 -x {0.0 2.0 -1 ------- null}
r -t 1.556144 -s 0 -d 4 -p undefined -e 512 -c 0 -i 21 -a 0 -x {0.0 4.0 -1 ------- null}
r -t 1.556144 -s 1 -d 3 -p undefined -e 512 -c 0 -i 23 -a 0 -x {1.0 3.0 -1 ------- null}
r -t 1.556144 -s 1 -d 5 -p undefined -e 512 -c 0 -i 24 -a 0 -x {1.0 5.0 -1 ------- null}
r -t 1.56024 -s 0 -d 2 -p undefined -e 512 -c 0 -i 22 -a 0 -x {0.0 6.0 -1 ------- null}
+ -t 1.56024 -s 2 -d 6 -p undefined -e 512 -c 0 -i 22 -a 0 -x {0.0 6.0 -1 ------- null}
- -t 1.56024 -s 2 -d 6 -p undefined -e 512 -c 0 -i 22 -a 0 -x {0.0 6.0 -1 ------- null}
h -t 1.56024 -s 2 -d 6 -p undefined -e 512 -c 0 -i 22 -a 0 -x {0.0 6.0 -1 ------- null}
r -t 1.56024 -s 1 -d 3 -p undefined -e 512 -c 0 -i 25 -a 0 -x {1.0 7.0 -1 ------- null}
+ -t 1.56024 -s 3 -d 7 -p undefined -e 512 -c 0 -i 25 -a 0 -x {1.0 7.0 -1 ------- null}
- -t 1.56024 -s 3 -d 7 -p undefined -e 512 -c 0 -i 25 -a 0 -x {1.0 7.0 -1 ------- null}
h -t 1.56024 -s 3 -d 7 -p undefined -e 512 -c 0 -i 25 -a 0 -x {1.0 7.0 -1 ------- null}
r -t 1.574336 -s 2 -d 6 -p undefined -e 512 -c 0 -i 22 -a 0 -x {0.0 6.0 -1 ------- null}
r -t 1.574336 -s 3 -d 7 -p undefined -e 512 -c 0 -i 25 -a 0 -x {1.0 7.0 -1 ------- null}
+ -t 2 -s 8 -d 2 -p undefined -e 64 -c 0 -i 26 -a 0 -x {8.0 0.0 -1 ------- null}
- -t 2 -s 8 -d 2 -p undefined -e 64 -c 0 -i 26 -a 0 -x {8.0 0.0 -1 ------- null}
h -t 2 -s 8 -d 2 -p undefined -e 64 -c 0 -i 26 -a 0 -x {8.0 0.0 -1 ------- null}
+ -t 2 -s 9 -d 3 -p undefined -e 64 -c 0 -i 27 -a 0 -x {9.0 1.0 -1 ------- null}
- -t 2 -s 9 -d 3 -p undefined -e 64 -c 0 -i 27 -a 0 -x {9.0 1.0 -1 ------- null}
h -t 2 -s 9 -d 3 -p undefined -e 64 -c 0 -i 27 -a 0 -x {9.0 1.0 -1 ------- null}
r -t 2.010512 -s 8 -d 2 -p undefined -e 64 -c 0 -i 26 -a 0 -x {8.0 0.0 -1 ------- null}
+ -t 2.010512 -s 2 -d 0 -p undefined -e 64 -c 0 -i 26 -a 0 -x {8.0 0.0 -1 ------- null}
- -t 2.010512 -s 2 -d 0 -p undefined -e 64 -c 0 -i 26 -a 0 -x {8.0 0.0 -1 ------- null}
h -t 2.010512 -s 2 -d 0 -p undefined -e 64 -c 0 -i 26 -a 0 -x {8.0 0.0 -1 ------- null}
r -t 2.010512 -s 9 -d 3 -p undefined -e 64 -c 0 -i 27 -a 0 -x {9.0 1.0 -1 ------- null}
+ -t 2.010512 -s 3 -d 1 -p undefined -e 64 -c 0 -i 27 -a 0 -x {9.0 1.0 -1 ------- null}
- -t 2.010512 -s 3 -d 1 -p undefined -e 64 -c 0 -i 27 -a 0 -x {9.0 1.0 -1 ------- null}
h -t 2.010512 -s 3 -d 1 -p undefined -e 64 -c 0 -i 27 -a 0 -x {9.0 1.0 -1 ------- null}
r -t 2.021024 -s 2 -d 0 -p undefined -e 64 -c 0 -i 26 -a 0 -x {8.0 0.0 -1 ------- null}
+ -t 2.021024 -s 0 -d 2 -p undefined -e 64 -c 0 -i 28 -a 0 -x {0.0 2.0 -1 ------- null}
- -t 2.021024 -s 0 -d 2 -p undefined -e 64 -c 0 -i 28 -a 0 -x {0.0 2.0 -1 ------- null}
h -t 2.021024 -s 0 -d 2 -p undefined -e 64 -c 0 -i 28 -a 0 -x {0.0 2.0 -1 ------- null}
+ -t 2.021024 -s 0 -d 4 -p undefined -e 64 -c 0 -i 29 -a 0 -x {0.0 4.0 -1 ------- null}
- -t 2.021024 -s 0 -d 4 -p undefined -e 64 -c 0 -i 29 -a 0 -x {0.0 4.0 -1 ------- null}
h -t 2.021024 -s 0 -d 4 -p undefined -e 64 -c 0 -i 29 -a 0 -x {0.0 4.0 -1 ------- null}
+ -t 2.021024 -s 0 -d 2 -p undefined -e 64 -c 0 -i 30 -a 0 -x {0.0 6.0 -1 ------- null}
r -t 2.021024 -s 3 -d 1 -p undefined -e 64 -c 0 -i 27 -a 0 -x {9.0 1.0 -1 ------- null}
+ -t 2.021024 -s 1 -d 3 -p undefined -e 64 -c 0 -i 31 -a 0 -x {1.0 3.0 -1 ------- null}
- -t 2.021024 -s 1 -d 3 -p undefined -e 64 -c 0 -i 31 -a 0 -x {1.0 3.0 -1 ------- null}
h -t 2.021024 -s 1 -d 3 -p undefined -e 64 -c 0 -i 31 -a 0 -x {1.0 3.0 -1 ------- null}
+ -t 2.021024 -s 1 -d 5 -p undefined -e 64 -c 0 -i 32 -a 0 -x {1.0 5.0 -1 ------- null}
- -t 2.021024 -s 1 -d 5 -p undefined -e 64 -c 0 -i 32 -a 0 -x {1.0 5.0 -1 ------- null}
h -t 2.021024 -s 1 -d 5 -p undefined -e 64 -c 0 -i 32 -a 0 -x {1.0 5.0 -1 ------- null}
+ -t 2.021024 -s 1 -d 3 -p undefined -e 64 -c 0 -i 33 -a 0 -x {1.0 7.0 -1 ------- null}
- -t 2.021536 -s 0 -d 2 -p undefined -e 64 -c 0 -i 30 -a 0 -x {0.0 6.0 -1 ------- null}
h -t 2.021536 -s 0 -d 2 -p undefined -e 64 -c 0 -i 30 -a 0 -x {0.0 6.0 -1 ------- null}
- -t 2.021536 -s 1 -d 3 -p undefined -e 64 -c 0 -i 33 -a 0 -x {1.0 7.0 -1 ------- null}
h -t 2.021536 -s 1 -d 3 -p undefined -e 64 -c 0 -i 33 -a 0 -x {1.0 7.0 -1 ------- null}
r -t 2.031536 -s 0 -d 2 -p undefined -e 64 -c 0 -i 28 -a 0 -x {0.0 2.0 -1 ------- null}
+ -t 2.031536 -s 2 -d 0 -p undefined -e 64 -c 0 -i 34 -a 0 -x {2.0 0.0 -1 ------- null}
- -t 2.031536 -s 2 -d 0 -p undefined -e 64 -c 0 -i 34 -a 0 -x {2.0 0.0 -1 ------- null}
h -t 2.031536 -s 2 -d 0 -p undefined -e 64 -c 0 -i 34 -a 0 -x {2.0 0.0 -1 ------- null}
r -t 2.031536 -s 0 -d 4 -p undefined -e 64 -c 0 -i 29 -a 0 -x {0.0 4.0 -1 ------- null}
+ -t 2.031536 -s 4 -d 0 -p undefined -e 64 -c 0 -i 35 -a 0 -x {4.0 0.0 -1 ------- null}
- -t 2.031536 -s 4 -d 0 -p undefined -e 64 -c 0 -i 35 -a 0 -x {4.0 0.0 -1 ------- null}
h -t 2.031536 -s 4 -d 0 -p undefined -e 64 -c 0 -i 35 -a 0 -x {4.0 0.0 -1 ------- null}
r -t 2.031536 -s 1 -d 3 -p undefined -e 64 -c 0 -i 31 -a 0 -x {1.0 3.0 -1 ------- null}
+ -t 2.031536 -s 3 -d 1 -p undefined -e 64 -c 0 -i 36 -a 0 -x {3.0 1.0 -1 ------- null}
- -t 2.031536 -s 3 -d 1 -p undefined -e 64 -c 0 -i 36 -a 0 -x {3.0 1.0 -1 ------- null}
h -t 2.031536 -s 3 -d 1 -p undefined -e 64 -c 0 -i 36 -a 0 -x {3.0 1.0 -1 ------- null}
r -t 2.031536 -s 1 -d 5 -p undefined -e 64 -c 0 -i 32 -a 0 -x {1.0 5.0 -1 ------- null}
+ -t 2.031536 -s 5 -d 1 -p undefined -e 64 -c 0 -i 37 -a 0 -x {5.0 1.0 -1 ------- null}
- -t 2.031536 -s 5 -d 1 -p undefined -e 64 -c 0 -i 37 -a 0 -x {5.0 1.0 -1 ------- null}
h -t 2.031536 -s 5 -d 1 -p undefined -e 64 -c 0 -i 37 -a 0 -x {5.0 1.0 -1 ------- null}
r -t 2.032048 -s 0 -d 2 -p undefined -e 64 -c 0 -i 30 -a 0 -x {0.0 6.0 -1 ------- null}
+ -t 2.032048 -s 2 -d 6 -p undefined -e 64 -c 0 -i 30 -a 0 -x {0.0 6.0 -1 ------- null}
- -t 2.032048 -s 2 -d 6 -p undefined -e 64 -c 0 -i 30 -a 0 -x {0.0 6.0 -1 ------- null}
h -t 2.032048 -s 2 -d 6 -p undefined -e 64 -c 0 -i 30 -a 0 -x {0.0 6.0 -1 ------- null}
r -t 2.032048 -s 1 -d 3 -p undefined -e 64 -c 0 -i 33 -a 0 -x {1.0 7.0 -1 ------- null}
+ -t 2.032048 -s 3 -d 7 -p undefined -e 64 -c 0 -i 33 -a 0 -x {1.0 7.0 -1 ------- null}
- -t 2.032048 -s 3 -d 7 -p undefined -e 64 -c 0 -i 33 -a 0 -x {1.0 7.0 -1 ------- null}
h -t 2.032048 -s 3 -d 7 -p undefined -e 64 -c 0 -i 33 -a 0 -x {1.0 7.0 -1 ------- null}
r -t 2.042048 -s 2 -d 0 -p undefined -e 64 -c 0 -i 34 -a 0 -x {2.0 0.0 -1 ------- null}
r -t 2.042048 -s 4 -d 0 -p undefined -e 64 -c 0 -i 35 -a 0 -x {4.0 0.0 -1 ------- null}
r -t 2.042048 -s 3 -d 1 -p undefined -e 64 -c 0 -i 36 -a 0 -x {3.0 1.0 -1 ------- null}
r -t 2.042048 -s 5 -d 1 -p undefined -e 64 -c 0 -i 37 -a 0 -x {5.0 1.0 -1 ------- null}
r -t 2.04256 -s 2 -d 6 -p undefined -e 64 -c 0 -i 30 -a 0 -x {0.0 6.0 -1 ------- null}
+ -t 2.04256 -s 6 -d 2 -p undefined -e 64 -c 0 -i 38 -a 0 -x {6.0 0.0 -1 ------- null}
- -t 2.04256 -s 6 -d 2 -p undefined -e 64 -c 0 -i 38 -a 0 -x {6.0 0.0 -1 ------- null}
h -t 2.04256 -s 6 -d 2 -p undefined -e 64 -c 0 -i 38 -a 0 -x {6.0 0.0 -1 ------- null}
r -t 2.04256 -s 3 -d 7 -p undefined -e 64 -c 0 -i 33 -a 0 -x {1.0 7.0 -1 ------- null}
+ -t 2.04256 -s 7 -d 3 -p undefined -e 64 -c 0 -i 39 -a 0 -x {7.0 1.0 -1 ------- null}
- -t 2.04256 -s 7 -d 3 -p undefined -e 64 -c 0 -i 39 -a 0 -x {7.0 1.0 -1 ------- null}
h -t 2.04256 -s 7 -d 3 -p undefined -e 64 -c 0 -i 39 -a 0 -x {7.0 1.0 -1 ------- null}
r -t 2.053072 -s 6 -d 2 -p undefined -e 64 -c 0 -i 38 -a 0 -x {6.0 0.0 -1 ------- null}
+ -t 2.053072 -s 2 -d 0 -p undefined -e 64 -c 0 -i 38 -a 0 -x {6.0 0.0 -1 ------- null}
- -t 2.053072 -s 2 -d 0 -p undefined -e 64 -c 0 -i 38 -a 0 -x {6.0 0.0 -1 ------- null}
h -t 2.053072 -s 2 -d 0 -p undefined -e 64 -c 0 -i 38 -a 0 -x {6.0 0.0 -1 ------- null}
r -t 2.053072 -s 7 -d 3 -p undefined -e 64 -c 0 -i 39 -a 0 -x {7.0 1.0 -1 ------- null}
+ -t 2.053072 -s 3 -d 1 -p undefined -e 64 -c 0 -i 39 -a 0 -x {7.0 1.0 -1 ------- null}
- -t 2.053072 -s 3 -d 1 -p undefined -e 64 -c 0 -i 39 -a 0 -x {7.0 1.0 -1 ------- null}
h -t 2.053072 -s 3 -d 1 -p undefined -e 64 -c 0 -i 39 -a 0 -x {7.0 1.0 -1 ------- null}
r -t 2.063584 -s 2 -d 0 -p undefined -e 64 -c 0 -i 38 -a 0 -x {6.0 0.0 -1 ------- null}
+ -t 2.063584 -s 0 -d 2 -p undefined -e 640 -c 0 -i 40 -a 0 -x {0.0 2.0 -1 ------- null}
- -t 2.063584 -s 0 -d 2 -p undefined -e 640 -c 0 -i 40 -a 0 -x {0.0 2.0 -1 ------- null}
h -t 2.063584 -s 0 -d 2 -p undefined -e 640 -c 0 -i 40 -a 0 -x {0.0 2.0 -1 ------- null}
+ -t 2.063584 -s 0 -d 4 -p undefined -e 640 -c 0 -i 41 -a 0 -x {0.0 4.0 -1 ------- null}
- -t 2.063584 -s 0 -d 4 -p undefined -e 640 -c 0 -i 41 -a 0 -x {0.0 4.0 -1 ------- null}
h -t 2.063584 -s 0 -d 4 -p undefined -e 640 -c 0 -i 41 -a 0 -x {0.0 4.0 -1 ------- null}
+ -t 2.063584 -s 0 -d 2 -p undefined -e 640 -c 0 -i 42 -a 0 -x {0.0 6.0 -1 ------- null}
+ -t 2.063584 -s 0 -d 2 -p undefined -e 640 -c 0 -i 43 -a 0 -x {0.0 8.0 -1 ------- null}
r -t 2.063584 -s 3 -d 1 -p undefined -e 64 -c 0 -i 39 -a 0 -x {7.0 1.0 -1 ------- null}
+ -t 2.063584 -s 1 -d 3 -p undefined -e 640 -c 0 -i 44 -a 0 -x {1.0 3.0 -1 ------- null}
- -t 2.063584 -s 1 -d 3 -p undefined -e 640 -c 0 -i 44 -a 0 -x {1.0 3.0 -1 ------- null}
h -t 2.063584 -s 1 -d 3 -p undefined -e 640 -c 0 -i 44 -a 0 -x {1.0 3.0 -1 ------- null}
+ -t 2.063584 -s 1 -d 5 -p undefined -e 640 -c 0 -i 45 -a 0 -x {1.0 5.0 -1 ------- null}
- -t 2.063584 -s 1 -d 5 -p undefined -e 640 -c 0 -i 45 -a 0 -x {1.0 5.0 -1 ------- null}
h -t 2.063584 -s 1 -d 5 -p undefined -e 640 -c 0 -i 45 -a 0 -x {1.0 5.0 -1 ------- null}
+ -t 2.063584 -s 1 -d 3 -p undefined -e 640 -c 0 -i 46 -a 0 -x {1.0 7.0 -1 ------- null}
+ -t 2.063584 -s 1 -d 3 -p undefined -e 640 -c 0 -i 47 -a 0 -x {1.0 9.0 -1 ------- null}
- -t 2.068704 -s 0 -d 2 -p undefined -e 640 -c 0 -i 42 -a 0 -x {0.0 6.0 -1 ------- null}
h -t 2.068704 -s 0 -d 2 -p undefined -e 640 -c 0 -i 42 -a 0 -x {0.0 6.0 -1 ------- null}
- -t 2.068704 -s 1 -d 3 -p undefined -e 640 -c 0 -i 46 -a 0 -x {1.0 7.0 -1 ------- null}
h -t 2.068704 -s 1 -d 3 -p undefined -e 640 -c 0 -i 46 -a 0 -x {1.0 7.0 -1 ------- null}
- -t 2.073824 -s 0 -d 2 -p undefined -e 640 -c 0 -i 43 -a 0 -x {0.0 8.0 -1 ------- null}
h -t 2.073824 -s 0 -d 2 -p undefined -e 640 -c 0 -i 43 -a 0 -x {0.0 8.0 -1 ------- null}
- -t 2.073824 -s 1 -d 3 -p undefined -e 640 -c 0 -i 47 -a 0 -x {1.0 9.0 -1 ------- null}
h -t 2.073824 -s 1 -d 3 -p undefined -e 640 -c 0 -i 47 -a 0 -x {1.0 9.0 -1 ------- null}
r -t 2.078704 -s 0 -d 2 -p undefined -e 640 -c 0 -i 40 -a 0 -x {0.0 2.0 -1 ------- null}
r -t 2.078704 -s 0 -d 4 -p undefined -e 640 -c 0 -i 41 -a 0 -x {0.0 4.0 -1 ------- null}
r -t 2.078704 -s 1 -d 3 -p undefined -e 640 -c 0 -i 44 -a 0 -x {1.0 3.0 -1 ------- null}
r -t 2.078704 -s 1 -d 5 -p undefined -e 640 -c 0 -i 45 -a 0 -x {1.0 5.0 -1 ------- null}
r -t 2.083824 -s 0 -d 2 -p undefined -e 640 -c 0 -i 42 -a 0 -x {0.0 6.0 -1 ------- null}
+ -t 2.083824 -s 2 -d 6 -p undefined -e 640 -c 0 -i 42 -a 0 -x {0.0 6.0 -1 ------- null}
- -t 2.083824 -s 2 -d 6 -p undefined -e 640 -c 0 -i 42 -a 0 -x {0.0 6.0 -1 ------- null}
h -t 2.083824 -s 2 -d 6 -p undefined -e 640 -c 0 -i 42 -a 0 -x {0.0 6.0 -1 ------- null}
r -t 2.083824 -s 1 -d 3 -p undefined -e 640 -c 0 -i 46 -a 0 -x {1.0 7.0 -1 ------- null}
+ -t 2.083824 -s 3 -d 7 -p undefined -e 640 -c 0 -i 46 -a 0 -x {1.0 7.0 -1 ------- null}
- -t 2.083824 -s 3 -d 7 -p undefined -e 640 -c 0 -i 46 -a 0 -x {1.0 7.0 -1 ------- null}
h -t 2.083824 -s 3 -d 7 -p undefined -e 640 -c 0 -i 46 -a 0 -x {1.0 7.0 -1 ------- null}
r -t 2.088944 -s 0 -d 2 -p undefined -e 640 -c 0 -i 43 -a 0 -x {0.0 8.0 -1 ------- null}
+ -t 2.088944 -s 2 -d 8 -p undefined -e 640 -c 0 -i 43 -a 0 -x {0.0 8.0 -1 ------- null}
- -t 2.088944 -s 2 -d 8 -p undefined -e 640 -c 0 -i 43 -a 0 -x {0.0 8.0 -1 ------- null}
h -t 2.088944 -s 2 -d 8 -p undefined -e 640 -c 0 -i 43 -a 0 -x {0.0 8.0 -1 ------- null}
r -t 2.088944 -s 1 -d 3 -p undefined -e 640 -c 0 -i 47 -a 0 -x {1.0 9.0 -1 ------- null}
+ -t 2.088944 -s 3 -d 9 -p undefined -e 640 -c 0 -i 47 -a 0 -x {1.0 9.0 -1 ------- null}
- -t 2.088944 -s 3 -d 9 -p undefined -e 640 -c 0 -i 47 -a 0 -x {1.0 9.0 -1 ------- null}
h -t 2.088944 -s 3 -d 9 -p undefined -e 640 -c 0 -i 47 -a 0 -x {1.0 9.0 -1 ------- null}
r -t 2.098944 -s 2 -d 6 -p undefined -e 640 -c 0 -i 42 -a 0 -x {0.0 6.0 -1 ------- null}
r -t 2.098944 -s 3 -d 7 -p undefined -e 640 -c 0 -i 46 -a 0 -x {1.0 7.0 -1 ------- null}
r -t 2.104064 -s 2 -d 8 -p undefined -e 640 -c 0 -i 43 -a 0 -x {0.0 8.0 -1 ------- null}
r -t 2.104064 -s 3 -d 9 -p undefined -e 640 -c 0 -i 47 -a 0 -x {1.0 9.0 -1 ------- null}
+ -t 2.5 -s 10 -d 2 -p undefined -e 64 -c 0 -i 48 -a 0 -x {10.0 0.0 -1 ------- null}
- -t 2.5 -s 10 -d 2 -p undefined -e 64 -c 0 -i 48 -a 0 -x {10.0 0.0 -1 ------- null}
h -t 2.5 -s 10 -d 2 -p undefined -e 64 -c 0 -i 48 -a 0 -x {10.0 0.0 -1 ------- null}
+ -t 2.5 -s 11 -d 3 -p undefined -e 64 -c 0 -i 49 -a 0 -x {11.0 1.0 -1 ------- null}
- -t 2.5 -s 11 -d 3 -p undefined -e 64 -c 0 -i 49 -a 0 -x {11.0 1.0 -1 ------- null}
h -t 2.5 -s 11 -d 3 -p undefined -e 64 -c 0 -i 49 -a 0 -x {11.0 1.0 -1 ------- null}
r -t 2.510512 -s 10 -d 2 -p undefined -e 64 -c 0 -i 48 -a 0 -x {10.0 0.0 -1 ------- null}
+ -t 2.510512 -s 2 -d 0 -p undefined -e 64 -c 0 -i 48 -a 0 -x {10.0 0.0 -1 ------- null}
- -t 2.510512 -s 2 -d 0 -p undefined -e 64 -c 0 -i 48 -a 0 -x {10.0 0.0 -1 ------- null}
h -t 2.510512 -s 2 -d 0 -p undefined -e 64 -c 0 -i 48 -a 0 -x {10.0 0.0 -1 ------- null}
r -t 2.510512 -s 11 -d 3 -p undefined -e 64 -c 0 -i 49 -a 0 -x {11.0 1.0 -1 ------- null}
+ -t 2.510512 -s 3 -d 1 -p undefined -e 64 -c 0 -i 49 -a 0 -x {11.0 1.0 -1 ------- null}
- -t 2.510512 -s 3 -d 1 -p undefined -e 64 -c 0 -i 49 -a 0 -x {11.0 1.0 -1 ------- null}
h -t 2.510512 -s 3 -d 1 -p undefined -e 64 -c 0 -i 49 -a 0 -x {11.0 1.0 -1 ------- null}
r -t 2.521024 -s 2 -d 0 -p undefined -e 64 -c 0 -i 48 -a 0 -x {10.0 0.0 -1 ------- null}
+ -t 2.521024 -s 0 -d 2 -p undefined -e 64 -c 0 -i 50 -a 0 -x {0.0 2.0 -1 ------- null}
- -t 2.521024 -s 0 -d 2 -p undefined -e 64 -c 0 -i 50 -a 0 -x {0.0 2.0 -1 ------- null}
h -t 2.521024 -s 0 -d 2 -p undefined -e 64 -c 0 -i 50 -a 0 -x {0.0 2.0 -1 ------- null}
+ -t 2.521024 -s 0 -d 4 -p undefined -e 64 -c 0 -i 51 -a 0 -x {0.0 4.0 -1 ------- null}
- -t 2.521024 -s 0 -d 4 -p undefined -e 64 -c 0 -i 51 -a 0 -x {0.0 4.0 -1 ------- null}
h -t 2.521024 -s 0 -d 4 -p undefined -e 64 -c 0 -i 51 -a 0 -x {0.0 4.0 -1 ------- null}
+ -t 2.521024 -s 0 -d 2 -p undefined -e 64 -c 0 -i 52 -a 0 -x {0.0 6.0 -1 ------- null}
+ -t 2.521024 -s 0 -d 2 -p undefined -e 64 -c 0 -i 53 -a 0 -x {0.0 8.0 -1 ------- null}
r -t 2.521024 -s 3 -d 1 -p undefined -e 64 -c 0 -i 49 -a 0 -x {11.0 1.0 -1 ------- null}
+ -t 2.521024 -s 1 -d 3 -p undefined -e 64 -c 0 -i 54 -a 0 -x {1.0 3.0 -1 ------- null}
- -t 2.521024 -s 1 -d 3 -p undefined -e 64 -c 0 -i 54 -a 0 -x {1.0 3.0 -1 ------- null}
h -t 2.521024 -s 1 -d 3 -p undefined -e 64 -c 0 -i 54 -a 0 -x {1.0 3.0 -1 ------- null}
+ -t 2.521024 -s 1 -d 5 -p undefined -e 64 -c 0 -i 55 -a 0 -x {1.0 5.0 -1 ------- null}
- -t 2.521024 -s 1 -d 5 -p undefined -e 64 -c 0 -i 55 -a 0 -x {1.0 5.0 -1 ------- null}
h -t 2.521024 -s 1 -d 5 -p undefined -e 64 -c 0 -i 55 -a 0 -x {1.0 5.0 -1 ------- null}
+ -t 2.521024 -s 1 -d 3 -p undefined -e 64 -c 0 -i 56 -a 0 -x {1.0 7.0 -1 ------- null}
+ -t 2.521024 -s 1 -d 3 -p undefined -e 64 -c 0 -i 57 -a 0 -x {1.0 9.0 -1 ------- null}
- -t 2.521536 -s 0 -d 2 -p undefined -e 64 -c 0 -i 52 -a 0 -x {0.0 6.0 -1 ------- null}
h -t 2.521536 -s 0 -d 2 -p undefined -e 64 -c 0 -i 52 -a 0 -x {0.0 6.0 -1 ------- null}
- -t 2.521536 -s 1 -d 3 -p undefined -e 64 -c 0 -i 56 -a 0 -x {1.0 7.0 -1 ------- null}
h -t 2.521536 -s 1 -d 3 -p undefined -e 64 -c 0 -i 56 -a 0 -x {1.0 7.0 -1 ------- null}
- -t 2.522048 -s 0 -d 2 -p undefined -e 64 -c 0 -i 53 -a 0 -x {0.0 8.0 -1 ------- null}
h -t 2.522048 -s 0 -d 2 -p undefined -e 64 -c 0 -i 53 -a 0 -x {0.0 8.0 -1 ------- null}
- -t 2.522048 -s 1 -d 3 -p undefined -e 64 -c 0 -i 57 -a 0 -x {1.0 9.0 -1 ------- null}
h -t 2.522048 -s 1 -d 3 -p undefined -e 64 -c 0 -i 57 -a 0 -x {1.0 9.0 -1 ------- null}
r -t 2.531536 -s 0 -d 2 -p undefined -e 64 -c 0 -i 50 -a 0 -x {0.0 2.0 -1 ------- null}
+ -t 2.531536 -s 2 -d 0 -p undefined -e 64 -c 0 -i 58 -a 0 -x {2.0 0.0 -1 ------- null}
- -t 2.531536 -s 2 -d 0 -p undefined -e 64 -c 0 -i 58 -a 0 -x {2.0 0.0 -1 ------- null}
h -t 2.531536 -s 2 -d 0 -p undefined -e 64 -c 0 -i 58 -a 0 -x {2.0 0.0 -1 ------- null}
r -t 2.531536 -s 0 -d 4 -p undefined -e 64 -c 0 -i 51 -a 0 -x {0.0 4.0 -1 ------- null}
+ -t 2.531536 -s 4 -d 0 -p undefined -e 64 -c 0 -i 59 -a 0 -x {4.0 0.0 -1 ------- null}